LAMMPS (17 Nov 2016)
variable mdt string 0
variable loco string /home/jinzhen/projects/SCEMa/examples/test1/nanoscale_log/tmp/2-1.4.0_1
variable locs string ./lammps_scripts_sisw
variable tempt equal 0.010000
# This file is for a LAMMPS simulation created by James Suter
# The system is polyethane, using the CVFF forcefield
# the simulation will heat up to 500K, cooldown to 200K and then perform unixial stretching in the x direction

##  This script should be just run once at the beginning to provide the initial
##  reference testing box, which will the be evolved using the in.lammps.strain
##  input file.

## Should we optimize the lammps call depending on the computer setup?
## suffix OMP

#  Setting units convention for the rest of the file
units           real            # default

#  Setting variables/attributes associated with each atom: charge, bonds, angles,
#  dihedrals, impropers (full)
atom_style      full

#  Setting the dimension of the simulation
dimension       3               # default

#  Setting boundary types in each dimension (periodic)
boundary        p p p

# Choose potential
pair_style	sw

# Setup neighbor style
neighbor 1.0 nsq
neigh_modify once no every 1 delay 0 check yes
read_restart /home/jinzhen/projects/SCEMa/examples/test1/nanoscale_output/init.g0_1.bin
  triclinic box = (-0.000949778 -0.00142467 -0.00189956) to (10.8609 16.2914 21.7219) with tilt (0 0 0)
  1 by 1 by 1 MPI processor grid
  192 atoms
print 'initially computed'
initially computed
variable ll1 equal lx
variable ll2 equal ly
variable ll3 equal lz
variable dts equal 0.002000
variable nts equal 25080
variable ceeps_00 equal -7.945108e-05
variable ceeps_01 equal -1.748363e-06
variable ceeps_02 equal 4.087959e-06
variable ceeps_11 equal -5.268371e-05
variable ceeps_12 equal 6.120505e-06
variable ceeps_22 equal 2.813126e-05
# This file is for a LAMMPS simulation created by James Suter
# The system is polyethane, using the CVFF forcefield
# the simulation will heat up to 500K, cooldown to 200K and then perform unixial stretching in the x direction

## Should we optimize the lammps call depending on the computer setup?
## suffix OMP

pair_coeff * * ${locs}/Si.sw Si
pair_coeff * * ./lammps_scripts_sisw/Si.sw Si
Reading potential file ./lammps_scripts_sisw/Si.sw with DATE: 2007-06-11

variable eb      equal "ebond"
variable ea      equal "epair"
variable ev      equal "eangle"
variable et      equal "edihed"
variable ew      equal "evdwl"
variable ep      equal "ecoul"


##  -------------------------------------------
#   Calculate the stress-strain curve for uniaxial extension in the x direction

#  Setting to display thermodynamical information on the system every 500 steps
thermo          500

#  Setting the type of thermodynamical information to be printed: T, P, energies, dimesions, V, stress tensor
thermo_style    custom step cpu temp press pe ke evdwl ecoul epair ebond eangle edihed lx ly lz vol pxx pyy pzz pxy pxz pyz v_eb v_ev v_et v_ew v_ep

#  Setting the syntax of the printed thermodynamical information
thermo_modify   flush yes line multi format float %g format 3 %15.8g

#  Setting printing position information on all atoms every 5000 steps PE_stress_strain_x.xyz
#  file specifying atom type 1, 2 and 3 with names respectively C, C and H  (identical as
#  previous with different file name)
#dump            atom_dump all atom ${ndump} ${loco}/${mdt}_straining.atom
#dump            xyz_dump all xyz 5000    ${loco}/${mdt}_stress_strain_x.xyz
#dump_modify     xyz_dump element  C C H

#  Printing evolution of stress for comparison
variable pt equal "step"
variable pp equal "press"
variable p0 equal "pxx"
variable p1 equal "pyy"
variable p2 equal "pzz"
variable p10 equal "pxy"
variable p11 equal "pxz"
variable p12 equal "pyz"
variable p3 equal "pe"
variable p4 equal "ke"
variable p5 equal "temp"
variable p6 equal "lx"
variable p7 equal "ly"
variable p8 equal "lz"
variable p9 equal "vol"
variable evdwl equal "evdwl"
variable ecoul equal "ecoul"
variable eatom equal "epair"
variable ebond equal "ebond"
variable eangle equal "eangle"
variable edihed equal "edihed"

#  Storing initial dimensions of the box
variable lx1 equal ${p6}
variable lx1 equal 10.8618995568104
variable ly1 equal ${p7}
variable ly1 equal 16.2928493352156
variable lz1 equal ${p8}
variable lz1 equal 21.7237991136209

#  Compute current stress using sampling over time and fixed NVT conditions
#fix 1e all print 1 "${pt} ${pp} ${p0} ${p1} ${p2} ${p10} ${p11} ${p12} ${p3} ${p4} ${p5} ${p6} ${p7} ${p8} ${p9} ${evdwl} ${ecoul} ${eatom} ${ebond} ${eangle} ${edihed}" file ${loco}/${mdt}_strain_press_evol.dat screen no

#  Setting a Verlet time solution algorithm/integrator
run_style       verlet

#  Loading the same fix 4 as in the init.lammps set of commands.
#fix             4  all shake 0.001 20 1000 m 1.0  # SHAKE to keep bond distances / angles involving H-atoms fixe

#  Setting a global constraint of canonical ensemble on all atoms, the temperature is set constant at 200k
#  with a relaxation time of 100fs
#  > Is this done right, namely sufficiently constrained? Volume is later controlled by the fix deform
#  on all the components of the strain tensor...
#fix             3 all nvt temp 200.0 200.0 100
#fix             3 all langevin 200.0 200.0 100.0 699483
#fix             3 all nvt/sllod temp ${tempt} ${tempt} 100.0
fix             3 all nvt temp ${tempt} ${tempt} 100.0
fix             3 all nvt temp 0.01 ${tempt} 100.0
fix             3 all nvt temp 0.01 0.01 100.0

# Note: these computes are present by default in any input script when using thermo command
#compute thermo_press all temp
#compute thermo_press all pressure thermo_temp

#  Setting a strain constraint every 1 steps in the x-direction on the box at a strain rate of 1e-7 fs-1, position of
#  all atoms positions are remapped following an affine transformation, namely proportional to the box deformation.
##  Is it pertinent to remap the coordinates proportionaly to the applied
##  strains? Should we remap velocities? Or none?
##  This command might be moved to the C++ wrapper file (as well as all the
##  commands that can not be set before, probably just the run command, and
##  maybe timestep for practicality).
#print "${eeps_00} ${eeps_11} ${eeps_22} ${eeps_01} ${eeps_02} ${eeps_12}"
fix             1 all deform 1  x erate ${ceeps_00}                                 y erate ${ceeps_11}                                 z erate ${ceeps_22}                                xy erate ${ceeps_01}                                xz erate ${ceeps_02}                                yz erate ${ceeps_12}                                remap x
fix             1 all deform 1  x erate -7.945108e-05                                 y erate ${ceeps_11}                                 z erate ${ceeps_22}                                xy erate ${ceeps_01}                                xz erate ${ceeps_02}                                yz erate ${ceeps_12}                                remap x
fix             1 all deform 1  x erate -7.945108e-05                                 y erate -5.268371e-05                                 z erate ${ceeps_22}                                xy erate ${ceeps_01}                                xz erate ${ceeps_02}                                yz erate ${ceeps_12}                                remap x
fix             1 all deform 1  x erate -7.945108e-05                                 y erate -5.268371e-05                                 z erate 2.813126e-05                                xy erate ${ceeps_01}                                xz erate ${ceeps_02}                                yz erate ${ceeps_12}                                remap x
fix             1 all deform 1  x erate -7.945108e-05                                 y erate -5.268371e-05                                 z erate 2.813126e-05                                xy erate -1.748363e-06                                xz erate ${ceeps_02}                                yz erate ${ceeps_12}                                remap x
fix             1 all deform 1  x erate -7.945108e-05                                 y erate -5.268371e-05                                 z erate 2.813126e-05                                xy erate -1.748363e-06                                xz erate 4.087959e-06                                yz erate ${ceeps_12}                                remap x
fix             1 all deform 1  x erate -7.945108e-05                                 y erate -5.268371e-05                                 z erate 2.813126e-05                                xy erate -1.748363e-06                                xz erate 4.087959e-06                                yz erate 6.120505e-06                                remap x

#  Setting 2fs timesteps
#timestep        dts #2.0  #(in wrapper)
timestep        ${dts} #2.0
timestep        0.002 

#  Running a molecular dynamics simulation for 2000000 timesteps
#run             nts #2000000  #(in wrapper)
run             ${nts} #2000000
run             25080 
Neighbor list info ...
  1 neighbor list requests
  update every 1 steps, delay 0 steps, check yes
  max neighbors/atom: 2000, page size: 100000
  master list distance cutoff = 5.77118
  ghost atom cutoff = 5.77118
Memory usage per processor = 2.32678 Mbytes
---------------- Step        4 ----- CPU =      0.0000 (sec) ----------------
Step     =              4 CPU      = 0 Temp     =               0 
Press    = 6.34165e-05 PotEng   = -832.627 KinEng   = 0 
E_vdwl   = -832.627 E_coul   = 0 E_pair   = -832.627 
E_bond   = 0 E_angle  = 0 E_dihed  = 0 
Lx       = 10.8619 Ly       = 16.2928 Lz       = 21.7238 
Volume   = 3844.49 Pxx      = 6.68711e-05 Pyy      = 6.04409e-05 
Pzz      = 6.29375e-05 Pxy      = 1.66606 Pxz      = -0.0760888 
Pyz      = 0.43727 v_eb     = 0 v_ev     = 0 
v_et     = 0 v_ew     = -832.627 v_ep     = 0 
---------------- Step      500 ----- CPU =      0.0917 (sec) ----------------
Step     =            500 CPU      = 0.0916648 Temp     =   3.5597187e-06 
Press    = 104.448 PotEng   = -832.627 KinEng   = 8.78848e-08 
E_vdwl   = -832.627 E_coul   = 0 E_pair   = -832.627 
E_bond   = 0 E_angle  = 0 E_dihed  = 0 
Lx       = 10.861 Ly       = 16.292 Lz       = 21.7244 
Volume   = 3844.09 Pxx      = 137.702 Pyy      = 117.829 
Pzz      = 57.8115 Pxy      = 0.821014 Pxz      = -2.25936 
Pyz      = -3.43115 v_eb     = 0 v_ev     = 0 
v_et     = 0 v_ew     = -832.627 v_ep     = 0 
---------------- Step     1000 ----- CPU =      0.1829 (sec) ----------------
Step     =           1000 CPU      = 0.182944 Temp     =   2.9414061e-06 
Press    = 209.988 PotEng   = -832.627 KinEng   = 7.26195e-08 
E_vdwl   = -832.627 E_coul   = 0 E_pair   = -832.627 
E_bond   = 0 E_angle  = 0 E_dihed  = 0 
Lx       = 10.8602 Ly       = 16.2911 Lz       = 21.725 
Volume   = 3843.69 Pxx      = 276.838 Pyy      = 236.894 
Pzz      = 116.233 Pxy      = 0.716561 Pxz      = -4.52662 
Pyz      = -7.1871 v_eb     = 0 v_ev     = 0 
v_et     = 0 v_ew     = -832.627 v_ep     = 0 
---------------- Step     1500 ----- CPU =      0.2740 (sec) ----------------
Step     =           1500 CPU      = 0.273959 Temp     =   3.0385758e-06 
Press    = 315.568 PotEng   = -832.627 KinEng   = 7.50184e-08 
E_vdwl   = -832.627 E_coul   = 0 E_pair   = -832.627 
E_bond   = 0 E_angle  = 0 E_dihed  = 0 
Lx       = 10.8593 Ly       = 16.2903 Lz       = 21.7256 
Volume   = 3843.29 Pxx      = 416.017 Pyy      = 356.007 
Pzz      = 174.68 Pxy      = 1.28628 Pxz      = -6.82984 
Pyz      = -10.777 v_eb     = 0 v_ev     = 0 
v_et     = 0 v_ew     = -832.627 v_ep     = 0 
---------------- Step     2000 ----- CPU =      0.3652 (sec) ----------------
Step     =           2000 CPU      = 0.365209 Temp     =   3.6996127e-06 
Press    = 421.186 PotEng   = -832.627 KinEng   = 9.13386e-08 
E_vdwl   = -832.627 E_coul   = 0 E_pair   = -832.627 
E_bond   = 0 E_angle  = 0 E_dihed  = 0 
Lx       = 10.8585 Ly       = 16.2894 Lz       = 21.7262 
Volume   = 3842.89 Pxx      = 555.239 Pyy      = 475.166 
Pzz      = 233.153 Pxy      = 2.72938 Pxz      = -9.1708 
Pyz      = -14.1385 v_eb     = 0 v_ev     = 0 
v_et     = 0 v_ew     = -832.627 v_ep     = 0 
---------------- Step     2500 ----- CPU =      0.4565 (sec) ----------------
Step     =           2500 CPU      = 0.456463 Temp     =   3.9141477e-06 
Press    = 526.843 PotEng   = -832.627 KinEng   = 9.66352e-08 
E_vdwl   = -832.627 E_coul   = 0 E_pair   = -832.627 
E_bond   = 0 E_angle  = 0 E_dihed  = 0 
Lx       = 10.8576 Ly       = 16.2886 Lz       = 21.7268 
Volume   = 3842.49 Pxx      = 694.504 Pyy      = 594.372 
Pzz      = 291.652 Pxy      = 4.78779 Pxz      = -11.5322 
Pyz      = -17.3277 v_eb     = 0 v_ev     = 0 
v_et     = 0 v_ew     = -832.627 v_ep     = 0 
---------------- Step     3000 ----- CPU =      0.5475 (sec) ----------------
Step     =           3000 CPU      = 0.547456 Temp     =   3.6897496e-06 
Press    = 632.538 PotEng   = -832.627 KinEng   = 9.10951e-08 
E_vdwl   = -832.627 E_coul   = 0 E_pair   = -832.627 
E_bond   = 0 E_angle  = 0 E_dihed  = 0 
Lx       = 10.8567 Ly       = 16.2877 Lz       = 21.7275 
Volume   = 3842.09 Pxx      = 833.812 Pyy      = 713.625 
Pzz      = 350.178 Pxy      = 6.90715 Pxz      = -13.8876 
Pyz      = -20.481 v_eb     = 0 v_ev     = 0 
v_et     = 0 v_ew     = -832.627 v_ep     = 0 
---------------- Step     3500 ----- CPU =      0.6384 (sec) ----------------
Step     =           3500 CPU      = 0.638431 Temp     =   3.5622563e-06 
Press    = 738.272 PotEng   = -832.626 KinEng   = 8.79474e-08 
E_vdwl   = -832.626 E_coul   = 0 E_pair   = -832.626 
E_bond   = 0 E_angle  = 0 E_dihed  = 0 
Lx       = 10.8559 Ly       = 16.2868 Lz       = 21.7281 
Volume   = 3841.69 Pxx      = 973.163 Pyy      = 832.925 
Pzz      = 408.729 Pxy      = 8.53051 Pxz      = -16.2147 
Pyz      = -23.7432 v_eb     = 0 v_ev     = 0 
v_et     = 0 v_ew     = -832.626 v_ep     = 0 
---------------- Step     4000 ----- CPU =      0.7293 (sec) ----------------
Step     =           4000 CPU      = 0.729346 Temp     =   3.1992068e-06 
Press    = 844.045 PotEng   = -832.626 KinEng   = 7.89842e-08 
E_vdwl   = -832.626 E_coul   = 0 E_pair   = -832.626 
E_bond   = 0 E_angle  = 0 E_dihed  = 0 
Lx       = 10.855 Ly       = 16.286 Lz       = 21.7287 
Volume   = 3841.29 Pxx      = 1112.56 Pyy      = 952.272 
Pzz      = 467.306 Pxy      = 9.36726 Pxz      = -18.5063 
Pyz      = -27.1996 v_eb     = 0 v_ev     = 0 
v_et     = 0 v_ew     = -832.626 v_ep     = 0 
---------------- Step     4500 ----- CPU =      0.8202 (sec) ----------------
Step     =           4500 CPU      = 0.820192 Temp     =   3.5371902e-06 
Press    = 949.857 PotEng   = -832.626 KinEng   = 8.73286e-08 
E_vdwl   = -832.626 E_coul   = 0 E_pair   = -832.626 
E_bond   = 0 E_angle  = 0 E_dihed  = 0 
Lx       = 10.8541 Ly       = 16.2851 Lz       = 21.7293 
Volume   = 3840.89 Pxx      = 1251.99 Pyy      = 1071.67 
Pzz      = 525.909 Pxy      = 9.51179 Pxz      = -20.7721 
Pyz      = -30.8435 v_eb     = 0 v_ev     = 0 
v_et     = 0 v_ew     = -832.626 v_ep     = 0 
---------------- Step     5000 ----- CPU =      0.9115 (sec) ----------------
Step     =           5000 CPU      = 0.911514 Temp     =   3.5386878e-06 
Press    = 1055.71 PotEng   = -832.625 KinEng   = 8.73656e-08 
E_vdwl   = -832.625 E_coul   = 0 E_pair   = -832.625 
E_bond   = 0 E_angle  = 0 E_dihed  = 0 
Lx       = 10.8533 Ly       = 16.2843 Lz       = 21.7299 
Volume   = 3840.49 Pxx      = 1391.47 Pyy      = 1191.11 
Pzz      = 584.539 Pxy      = 9.37248 Pxz      = -23.0332 
Pyz      = -34.5877 v_eb     = 0 v_ev     = 0 
v_et     = 0 v_ew     = -832.625 v_ep     = 0 
---------------- Step     5500 ----- CPU =      1.0029 (sec) ----------------
Step     =           5500 CPU      = 1.00286 Temp     =   3.5721541e-06 
Press    = 1161.6 PotEng   = -832.625 KinEng   = 8.81918e-08 
E_vdwl   = -832.625 E_coul   = 0 E_pair   = -832.625 
E_bond   = 0 E_angle  = 0 E_dihed  = 0 
Lx       = 10.8524 Ly       = 16.2834 Lz       = 21.7305 
Volume   = 3840.09 Pxx      = 1531 Pyy      = 1310.6 
Pzz      = 643.194 Pxy      = 9.46457 Pxz      = -25.3122 
Pyz      = -38.3092 v_eb     = 0 v_ev     = 0 
v_et     = 0 v_ew     = -832.625 v_ep     = 0 
---------------- Step     6000 ----- CPU =      1.0938 (sec) ----------------
Step     =           6000 CPU      = 1.09376 Temp     =   2.8743898e-06 
Press    = 1267.52 PotEng   = -832.624 KinEng   = 7.09649e-08 
E_vdwl   = -832.624 E_coul   = 0 E_pair   = -832.624 
E_bond   = 0 E_angle  = 0 E_dihed  = 0 
Lx       = 10.8516 Ly       = 16.2826 Lz       = 21.7311 
Volume   = 3839.69 Pxx      = 1670.56 Pyy      = 1430.13 
Pzz      = 701.876 Pxy      = 10.1747 Pxz      = -27.6226 
Pyz      = -41.9028 v_eb     = 0 v_ev     = 0 
v_et     = 0 v_ew     = -832.624 v_ep     = 0 
---------------- Step     6500 ----- CPU =      1.1845 (sec) ----------------
Step     =           6500 CPU      = 1.18455 Temp     =   3.1250764e-06 
Press    = 1373.49 PotEng   = -832.624 KinEng   = 7.7154e-08 
E_vdwl   = -832.624 E_coul   = 0 E_pair   = -832.624 
E_bond   = 0 E_angle  = 0 E_dihed  = 0 
Lx       = 10.8507 Ly       = 16.2817 Lz       = 21.7317 
Volume   = 3839.29 Pxx      = 1810.17 Pyy      = 1549.71 
Pzz      = 760.584 Pxy      = 11.6031 Pxz      = -29.9645 
Pyz      = -45.3217 v_eb     = 0 v_ev     = 0 
v_et     = 0 v_ew     = -832.624 v_ep     = 0 
---------------- Step     7000 ----- CPU =      1.2753 (sec) ----------------
Step     =           7000 CPU      = 1.27531 Temp     =   3.7820646e-06 
Press    = 1479.5 PotEng   = -832.624 KinEng   = 9.33742e-08 
E_vdwl   = -832.624 E_coul   = 0 E_pair   = -832.624 
E_bond   = 0 E_angle  = 0 E_dihed  = 0 
Lx       = 10.8498 Ly       = 16.2808 Lz       = 21.7323 
Volume   = 3838.89 Pxx      = 1949.83 Pyy      = 1669.34 
Pzz      = 819.318 Pxy      = 13.5429 Pxz      = -32.3248 
Pyz      = -48.5893 v_eb     = 0 v_ev     = 0 
v_et     = 0 v_ew     = -832.624 v_ep     = 0 
---------------- Step     7500 ----- CPU =      1.3665 (sec) ----------------
Step     =           7500 CPU      = 1.36647 Temp     =   3.5898508e-06 
Press    = 1585.54 PotEng   = -832.623 KinEng   = 8.86287e-08 
E_vdwl   = -832.623 E_coul   = 0 E_pair   = -832.623 
E_bond   = 0 E_angle  = 0 E_dihed  = 0 
Lx       = 10.849 Ly       = 16.28 Lz       = 21.733 
Volume   = 3838.49 Pxx      = 2089.52 Pyy      = 1789.02 
Pzz      = 878.078 Pxy      = 15.5882 Pxz      = -34.6836 
Pyz      = -51.7837 v_eb     = 0 v_ev     = 0 
v_et     = 0 v_ew     = -832.623 v_ep     = 0 
---------------- Step     8000 ----- CPU =      1.4573 (sec) ----------------
Step     =           8000 CPU      = 1.45734 Temp     =   3.6399461e-06 
Press    = 1691.62 PotEng   = -832.622 KinEng   = 8.98655e-08 
E_vdwl   = -832.622 E_coul   = 0 E_pair   = -832.622 
E_bond   = 0 E_angle  = 0 E_dihed  = 0 
Lx       = 10.8481 Ly       = 16.2791 Lz       = 21.7336 
Volume   = 3838.1 Pxx      = 2229.26 Pyy      = 1908.74 
Pzz      = 936.864 Pxy      = 17.313 Pxz      = -37.0232 
Pyz      = -55.0034 v_eb     = 0 v_ev     = 0 
v_et     = 0 v_ew     = -832.622 v_ep     = 0 
---------------- Step     8500 ----- CPU =      1.5483 (sec) ----------------
Step     =           8500 CPU      = 1.54828 Temp     =     3.88501e-06 
Press    = 1797.74 PotEng   = -832.622 KinEng   = 9.59158e-08 
E_vdwl   = -832.622 E_coul   = 0 E_pair   = -832.622 
E_bond   = 0 E_angle  = 0 E_dihed  = 0 
Lx       = 10.8472 Ly       = 16.2783 Lz       = 21.7342 
Volume   = 3837.7 Pxx      = 2369.04 Pyy      = 2028.51 
Pzz      = 995.676 Pxy      = 18.4405 Pxz      = -39.3338 
Pyz      = -58.331 v_eb     = 0 v_ev     = 0 
v_et     = 0 v_ew     = -832.622 v_ep     = 0 
---------------- Step     9000 ----- CPU =      1.6394 (sec) ----------------
Step     =           9000 CPU      = 1.63942 Temp     =   3.3144735e-06 
Press    = 1903.9 PotEng   = -832.621 KinEng   = 8.183e-08 
E_vdwl   = -832.621 E_coul   = 0 E_pair   = -832.621 
E_bond   = 0 E_angle  = 0 E_dihed  = 0 
Lx       = 10.8464 Ly       = 16.2774 Lz       = 21.7348 
Volume   = 3837.3 Pxx      = 2508.87 Pyy      = 2148.33 
Pzz      = 1054.51 Pxy      = 18.9377 Pxz      = -41.6176 
Pyz      = -61.8069 v_eb     = 0 v_ev     = 0 
v_et     = 0 v_ew     = -832.621 v_ep     = 0 
---------------- Step     9500 ----- CPU =      1.7305 (sec) ----------------
Step     =           9500 CPU      = 1.73046 Temp     =   3.2507115e-06 
Press    = 2010.1 PotEng   = -832.62 KinEng   = 8.02558e-08 
E_vdwl   = -832.62 E_coul   = 0 E_pair   = -832.62 
E_bond   = 0 E_angle  = 0 E_dihed  = 0 
Lx       = 10.8455 Ly       = 16.2765 Lz       = 21.7354 
Volume   = 3836.9 Pxx      = 2648.74 Pyy      = 2268.19 
Pzz      = 1113.38 Pxy      = 19.0086 Pxz      = -43.8864 
Pyz      = -65.4204 v_eb     = 0 v_ev     = 0 
v_et     = 0 v_ew     = -832.62 v_ep     = 0 
---------------- Step    10000 ----- CPU =      1.8216 (sec) ----------------
Step     =          10000 CPU      = 1.82162 Temp     =   3.9265565e-06 
Press    = 2116.34 PotEng   = -832.62 KinEng   = 9.69415e-08 
E_vdwl   = -832.62 E_coul   = 0 E_pair   = -832.62 
E_bond   = 0 E_angle  = 0 E_dihed  = 0 
Lx       = 10.8446 Ly       = 16.2757 Lz       = 21.736 
Volume   = 3836.5 Pxx      = 2788.65 Pyy      = 2388.11 
Pzz      = 1172.27 Pxy      = 19.0004 Pxz      = -46.1569 
Pyz      = -69.1189 v_eb     = 0 v_ev     = 0 
v_et     = 0 v_ew     = -832.62 v_ep     = 0 
---------------- Step    10500 ----- CPU =      1.9131 (sec) ----------------
Step     =          10500 CPU      = 1.91313 Temp     =     3.17082e-06 
Press    = 2222.62 PotEng   = -832.619 KinEng   = 7.82834e-08 
E_vdwl   = -832.619 E_coul   = 0 E_pair   = -832.619 
E_bond   = 0 E_angle  = 0 E_dihed  = 0 
Lx       = 10.8438 Ly       = 16.2748 Lz       = 21.7366 
Volume   = 3836.1 Pxx      = 2928.6 Pyy      = 2508.07 
Pzz      = 1231.19 Pxy      = 19.2686 Pxz      = -48.4444 
Pyz      = -72.8285 v_eb     = 0 v_ev     = 0 
v_et     = 0 v_ew     = -832.619 v_ep     = 0 
---------------- Step    11000 ----- CPU =      2.0049 (sec) ----------------
Step     =          11000 CPU      = 2.00489 Temp     =   3.3217535e-06 
Press    = 2328.93 PotEng   = -832.618 KinEng   = 8.20097e-08 
E_vdwl   = -832.618 E_coul   = 0 E_pair   = -832.618 
E_bond   = 0 E_angle  = 0 E_dihed  = 0 
Lx       = 10.8429 Ly       = 16.274 Lz       = 21.7372 
Volume   = 3835.7 Pxx      = 3068.6 Pyy      = 2628.07 
Pzz      = 1290.13 Pxy      = 20.0518 Pxz      = -50.7578 
Pyz      = -76.478 v_eb     = 0 v_ev     = 0 
v_et     = 0 v_ew     = -832.618 v_ep     = 0 
---------------- Step    11500 ----- CPU =      2.0961 (sec) ----------------
Step     =          11500 CPU      = 2.09608 Temp     =    3.302684e-06 
Press    = 2435.29 PotEng   = -832.617 KinEng   = 8.15389e-08 
E_vdwl   = -832.617 E_coul   = 0 E_pair   = -832.617 
E_bond   = 0 E_angle  = 0 E_dihed  = 0 
Lx       = 10.8421 Ly       = 16.2731 Lz       = 21.7378 
Volume   = 3835.3 Pxx      = 3208.64 Pyy      = 2748.13 
Pzz      = 1349.1 Pxy      = 21.4011 Pxz      = -53.0971 
Pyz      = -80.0189 v_eb     = 0 v_ev     = 0 
v_et     = 0 v_ew     = -832.617 v_ep     = 0 
---------------- Step    12000 ----- CPU =      2.1872 (sec) ----------------
Step     =          12000 CPU      = 2.18717 Temp     =   3.8329468e-06 
Press    = 2541.68 PotEng   = -832.616 KinEng   = 9.46304e-08 
E_vdwl   = -832.616 E_coul   = 0 E_pair   = -832.616 
E_bond   = 0 E_angle  = 0 E_dihed  = 0 
Lx       = 10.8412 Ly       = 16.2723 Lz       = 21.7385 
Volume   = 3834.9 Pxx      = 3348.73 Pyy      = 2868.23 
Pzz      = 1408.1 Pxy      = 23.1789 Pxz      = -55.4542 
Pyz      = -83.4364 v_eb     = 0 v_ev     = 0 
v_et     = 0 v_ew     = -832.616 v_ep     = 0 
---------------- Step    12500 ----- CPU =      2.2782 (sec) ----------------
Step     =          12500 CPU      = 2.27816 Temp     =   3.4010324e-06 
Press    = 2648.12 PotEng   = -832.615 KinEng   = 8.3967e-08 
E_vdwl   = -832.615 E_coul   = 0 E_pair   = -832.615 
E_bond   = 0 E_angle  = 0 E_dihed  = 0 
Lx       = 10.8403 Ly       = 16.2714 Lz       = 21.7391 
Volume   = 3834.5 Pxx      = 3488.85 Pyy      = 2988.37 
Pzz      = 1467.12 Pxy      = 25.1192 Pxz      = -57.8157 
Pyz      = -86.7488 v_eb     = 0 v_ev     = 0 
v_et     = 0 v_ew     = -832.615 v_ep     = 0 
---------------- Step    13000 ----- CPU =      2.3707 (sec) ----------------
Step     =          13000 CPU      = 2.37066 Temp     =   3.4796285e-06 
Press    = 2754.59 PotEng   = -832.614 KinEng   = 8.59075e-08 
E_vdwl   = -832.614 E_coul   = 0 E_pair   = -832.614 
E_bond   = 0 E_angle  = 0 E_dihed  = 0 
Lx       = 10.8395 Ly       = 16.2705 Lz       = 21.7397 
Volume   = 3834.1 Pxx      = 3629.02 Pyy      = 3108.57 
Pzz      = 1526.17 Pxy      = 26.922 Pxz      = -60.1683 
Pyz      = -89.9995 v_eb     = 0 v_ev     = 0 
v_et     = 0 v_ew     = -832.614 v_ep     = 0 
---------------- Step    13500 ----- CPU =      2.4621 (sec) ----------------
Step     =          13500 CPU      = 2.4621 Temp     =   3.1255461e-06 
Press    = 2861.1 PotEng   = -832.613 KinEng   = 7.71656e-08 
E_vdwl   = -832.613 E_coul   = 0 E_pair   = -832.613 
E_bond   = 0 E_angle  = 0 E_dihed  = 0 
Lx       = 10.8386 Ly       = 16.2697 Lz       = 21.7403 
Volume   = 3833.7 Pxx      = 3769.24 Pyy      = 3228.81 
Pzz      = 1585.24 Pxy      = 28.3482 Pxz      = -62.5018 
Pyz      = -93.2429 v_eb     = 0 v_ev     = 0 
v_et     = 0 v_ew     = -832.613 v_ep     = 0 
---------------- Step    14000 ----- CPU =      2.5538 (sec) ----------------
Step     =          14000 CPU      = 2.55382 Temp     =   3.2881049e-06 
Press    = 2967.65 PotEng   = -832.612 KinEng   = 8.1179e-08 
E_vdwl   = -832.612 E_coul   = 0 E_pair   = -832.612 
E_bond   = 0 E_angle  = 0 E_dihed  = 0 
Lx       = 10.8377 Ly       = 16.2688 Lz       = 21.7409 
Volume   = 3833.3 Pxx      = 3909.5 Pyy      = 3349.1 
Pzz      = 1644.34 Pxy      = 29.2847 Pxz      = -64.8124 
Pyz      = -96.5308 v_eb     = 0 v_ev     = 0 
v_et     = 0 v_ew     = -832.612 v_ep     = 0 
---------------- Step    14500 ----- CPU =      2.6450 (sec) ----------------
Step     =          14500 CPU      = 2.64497 Temp     =   3.6207211e-06 
Press    = 3074.24 PotEng   = -832.611 KinEng   = 8.93909e-08 
E_vdwl   = -832.611 E_coul   = 0 E_pair   = -832.611 
E_bond   = 0 E_angle  = 0 E_dihed  = 0 
Lx       = 10.8369 Ly       = 16.268 Lz       = 21.7415 
Volume   = 3832.9 Pxx      = 4049.8 Pyy      = 3469.44 
Pzz      = 1703.47 Pxy      = 29.766 Pxz      = -67.103 
Pyz      = -99.9005 v_eb     = 0 v_ev     = 0 
v_et     = 0 v_ew     = -832.611 v_ep     = 0 
---------------- Step    15000 ----- CPU =      2.7360 (sec) ----------------
Step     =          15000 CPU      = 2.73595 Temp     =    3.582412e-06 
Press    = 3180.86 PotEng   = -832.61 KinEng   = 8.84451e-08 
E_vdwl   = -832.61 E_coul   = 0 E_pair   = -832.61 
E_bond   = 0 E_angle  = 0 E_dihed  = 0 
Lx       = 10.836 Ly       = 16.2671 Lz       = 21.7421 
Volume   = 3832.5 Pxx      = 4190.14 Pyy      = 3589.83 
Pzz      = 1762.63 Pxy      = 29.9507 Pxz      = -69.3818 
Pyz      = -103.369 v_eb     = 0 v_ev     = 0 
v_et     = 0 v_ew     = -832.61 v_ep     = 0 
---------------- Step    15500 ----- CPU =      2.8267 (sec) ----------------
Step     =          15500 CPU      = 2.82672 Temp     =   3.6797653e-06 
Press    = 3287.53 PotEng   = -832.609 KinEng   = 9.08486e-08 
E_vdwl   = -832.609 E_coul   = 0 E_pair   = -832.609 
E_bond   = 0 E_angle  = 0 E_dihed  = 0 
Lx       = 10.8352 Ly       = 16.2662 Lz       = 21.7427 
Volume   = 3832.1 Pxx      = 4330.53 Pyy      = 3710.26 
Pzz      = 1821.81 Pxy      = 30.0668 Pxz      = -71.6595 
Pyz      = -106.931 v_eb     = 0 v_ev     = 0 
v_et     = 0 v_ew     = -832.609 v_ep     = 0 
---------------- Step    16000 ----- CPU =      2.9179 (sec) ----------------
Step     =          16000 CPU      = 2.91795 Temp     =   2.9878522e-06 
Press    = 3394.24 PotEng   = -832.608 KinEng   = 7.37662e-08 
E_vdwl   = -832.608 E_coul   = 0 E_pair   = -832.608 
E_bond   = 0 E_angle  = 0 E_dihed  = 0 
Lx       = 10.8343 Ly       = 16.2654 Lz       = 21.7433 
Volume   = 3831.7 Pxx      = 4470.96 Pyy      = 3830.74 
Pzz      = 1881.01 Pxy      = 30.3449 Pxz      = -73.9467 
Pyz      = -110.565 v_eb     = 0 v_ev     = 0 
v_et     = 0 v_ew     = -832.608 v_ep     = 0 
---------------- Step    16500 ----- CPU =      3.0088 (sec) ----------------
Step     =          16500 CPU      = 3.0088 Temp     =   3.4069536e-06 
Press    = 3500.98 PotEng   = -832.607 KinEng   = 8.41132e-08 
E_vdwl   = -832.607 E_coul   = 0 E_pair   = -832.607 
E_bond   = 0 E_angle  = 0 E_dihed  = 0 
Lx       = 10.8334 Ly       = 16.2645 Lz       = 21.744 
Volume   = 3831.3 Pxx      = 4611.43 Pyy      = 3951.27 
Pzz      = 1940.25 Pxy      = 30.9582 Pxz      = -76.2507 
Pyz      = -114.236 v_eb     = 0 v_ev     = 0 
v_et     = 0 v_ew     = -832.607 v_ep     = 0 
---------------- Step    17000 ----- CPU =      3.0997 (sec) ----------------
Step     =          17000 CPU      = 3.09971 Temp     =   3.4507206e-06 
Press    = 3607.77 PotEng   = -832.605 KinEng   = 8.51938e-08 
E_vdwl   = -832.605 E_coul   = 0 E_pair   = -832.605 
E_bond   = 0 E_angle  = 0 E_dihed  = 0 
Lx       = 10.8326 Ly       = 16.2637 Lz       = 21.7446 
Volume   = 3830.9 Pxx      = 4751.95 Pyy      = 4071.84 
Pzz      = 1999.51 Pxy      = 31.9848 Pxz      = -78.5746 
Pyz      = -117.907 v_eb     = 0 v_ev     = 0 
v_et     = 0 v_ew     = -832.605 v_ep     = 0 
---------------- Step    17500 ----- CPU =      3.1906 (sec) ----------------
Step     =          17500 CPU      = 3.19063 Temp     =   2.8534503e-06 
Press    = 3714.59 PotEng   = -832.604 KinEng   = 7.04479e-08 
E_vdwl   = -832.604 E_coul   = 0 E_pair   = -832.604 
E_bond   = 0 E_angle  = 0 E_dihed  = 0 
Lx       = 10.8317 Ly       = 16.2628 Lz       = 21.7452 
Volume   = 3830.5 Pxx      = 4892.51 Pyy      = 4192.46 
Pzz      = 2058.79 Pxy      = 33.3987 Pxz      = -80.9165 
Pyz      = -121.544 v_eb     = 0 v_ev     = 0 
v_et     = 0 v_ew     = -832.604 v_ep     = 0 
---------------- Step    18000 ----- CPU =      3.2815 (sec) ----------------
Step     =          18000 CPU      = 3.28154 Temp     =   4.1387319e-06 
Press    = 3821.45 PotEng   = -832.603 KinEng   = 1.0218e-07 
E_vdwl   = -832.603 E_coul   = 0 E_pair   = -832.603 
E_bond   = 0 E_angle  = 0 E_dihed  = 0 
Lx       = 10.8308 Ly       = 16.262 Lz       = 21.7458 
Volume   = 3830.1 Pxx      = 5033.11 Pyy      = 4313.13 
Pzz      = 2118.11 Pxy      = 35.0856 Pxz      = -83.271 
Pyz      = -125.124 v_eb     = 0 v_ev     = 0 
v_et     = 0 v_ew     = -832.603 v_ep     = 0 
---------------- Step    18500 ----- CPU =      3.3736 (sec) ----------------
Step     =          18500 CPU      = 3.3736 Temp     =   3.6868664e-06 
Press    = 3928.35 PotEng   = -832.601 KinEng   = 9.10239e-08 
E_vdwl   = -832.601 E_coul   = 0 E_pair   = -832.601 
E_bond   = 0 E_angle  = 0 E_dihed  = 0 
Lx       = 10.83 Ly       = 16.2611 Lz       = 21.7464 
Volume   = 3829.7 Pxx      = 5173.76 Pyy      = 4433.85 
Pzz      = 2177.45 Pxy      = 36.8788 Pxz      = -85.6301 
Pyz      = -128.631 v_eb     = 0 v_ev     = 0 
v_et     = 0 v_ew     = -832.601 v_ep     = 0 
---------------- Step    19000 ----- CPU =      3.4647 (sec) ----------------
Step     =          19000 CPU      = 3.46472 Temp     =   3.3303549e-06 
Press    = 4035.29 PotEng   = -832.6 KinEng   = 8.22221e-08 
E_vdwl   = -832.6 E_coul   = 0 E_pair   = -832.6 
E_bond   = 0 E_angle  = 0 E_dihed  = 0 
Lx       = 10.8291 Ly       = 16.2602 Lz       = 21.747 
Volume   = 3829.3 Pxx      = 5314.45 Pyy      = 4554.62 
Pzz      = 2236.81 Pxy      = 38.6009 Pxz      = -87.9859 
Pyz      = -132.066 v_eb     = 0 v_ev     = 0 
v_et     = 0 v_ew     = -832.6 v_ep     = 0 
---------------- Step    19500 ----- CPU =      3.5557 (sec) ----------------
Step     =          19500 CPU      = 3.55573 Temp     =   2.9092297e-06 
Press    = 4142.27 PotEng   = -832.598 KinEng   = 7.18251e-08 
E_vdwl   = -832.598 E_coul   = 0 E_pair   = -832.598 
E_bond   = 0 E_angle  = 0 E_dihed  = 0 
Lx       = 10.8282 Ly       = 16.2594 Lz       = 21.7476 
Volume   = 3828.9 Pxx      = 5455.18 Pyy      = 4675.43 
Pzz      = 2296.2 Pxy      = 40.1034 Pxz      = -90.3316 
Pyz      = -135.438 v_eb     = 0 v_ev     = 0 
v_et     = 0 v_ew     = -832.598 v_ep     = 0 
---------------- Step    20000 ----- CPU =      3.6468 (sec) ----------------
Step     =          20000 CPU      = 3.64682 Temp     =   4.0324013e-06 
Press    = 4249.29 PotEng   = -832.597 KinEng   = 9.95547e-08 
E_vdwl   = -832.597 E_coul   = 0 E_pair   = -832.597 
E_bond   = 0 E_angle  = 0 E_dihed  = 0 
Lx       = 10.8274 Ly       = 16.2585 Lz       = 21.7482 
Volume   = 3828.5 Pxx      = 5595.96 Pyy      = 4796.29 
Pzz      = 2355.62 Pxy      = 41.294 Pxz      = -92.6633 
Pyz      = -138.764 v_eb     = 0 v_ev     = 0 
v_et     = 0 v_ew     = -832.597 v_ep     = 0 
---------------- Step    20500 ----- CPU =      3.7380 (sec) ----------------
Step     =          20500 CPU      = 3.73801 Temp     =   3.9977324e-06 
Press    = 4356.35 PotEng   = -832.595 KinEng   = 9.86988e-08 
E_vdwl   = -832.595 E_coul   = 0 E_pair   = -832.595 
E_bond   = 0 E_angle  = 0 E_dihed  = 0 
Lx       = 10.8265 Ly       = 16.2577 Lz       = 21.7489 
Volume   = 3828.1 Pxx      = 5736.78 Pyy      = 4917.2 
Pzz      = 2415.07 Pxy      = 42.1492 Pxz      = -94.9801 
Pyz      = -142.065 v_eb     = 0 v_ev     = 0 
v_et     = 0 v_ew     = -832.595 v_ep     = 0 
---------------- Step    21000 ----- CPU =      3.8294 (sec) ----------------
Step     =          21000 CPU      = 3.82935 Temp     =   3.8080557e-06 
Press    = 4463.45 PotEng   = -832.594 KinEng   = 9.40159e-08 
E_vdwl   = -832.594 E_coul   = 0 E_pair   = -832.594 
E_bond   = 0 E_angle  = 0 E_dihed  = 0 
Lx       = 10.8257 Ly       = 16.2568 Lz       = 21.7495 
Volume   = 3827.7 Pxx      = 5877.65 Pyy      = 5038.15 
Pzz      = 2474.54 Pxy      = 42.7115 Pxz      = -97.2838 
Pyz      = -145.365 v_eb     = 0 v_ev     = 0 
v_et     = 0 v_ew     = -832.594 v_ep     = 0 
---------------- Step    21500 ----- CPU =      3.9210 (sec) ----------------
Step     =          21500 CPU      = 3.92098 Temp     =   3.3898999e-06 
Press    = 4570.58 PotEng   = -832.592 KinEng   = 8.36922e-08 
E_vdwl   = -832.592 E_coul   = 0 E_pair   = -832.592 
E_bond   = 0 E_angle  = 0 E_dihed  = 0 
Lx       = 10.8248 Ly       = 16.2559 Lz       = 21.7501 
Volume   = 3827.3 Pxx      = 6018.55 Pyy      = 5159.15 
Pzz      = 2534.04 Pxy      = 43.0733 Pxz      = -99.5786 
Pyz      = -148.682 v_eb     = 0 v_ev     = 0 
v_et     = 0 v_ew     = -832.592 v_ep     = 0 
---------------- Step    22000 ----- CPU =      4.0128 (sec) ----------------
Step     =          22000 CPU      = 4.01278 Temp     =   3.8773008e-06 
Press    = 4677.76 PotEng   = -832.591 KinEng   = 9.57255e-08 
E_vdwl   = -832.591 E_coul   = 0 E_pair   = -832.591 
E_bond   = 0 E_angle  = 0 E_dihed  = 0 
Lx       = 10.8239 Ly       = 16.2551 Lz       = 21.7507 
Volume   = 3826.9 Pxx      = 6159.5 Pyy      = 5280.2 
Pzz      = 2593.56 Pxy      = 43.3549 Pxz      = -101.87 
Pyz      = -152.033 v_eb     = 0 v_ev     = 0 
v_et     = 0 v_ew     = -832.591 v_ep     = 0 
---------------- Step    22500 ----- CPU =      4.1051 (sec) ----------------
Step     =          22500 CPU      = 4.10512 Temp     =    4.183063e-06 
Press    = 4784.97 PotEng   = -832.589 KinEng   = 1.03274e-07 
E_vdwl   = -832.589 E_coul   = 0 E_pair   = -832.589 
E_bond   = 0 E_angle  = 0 E_dihed  = 0 
Lx       = 10.8231 Ly       = 16.2542 Lz       = 21.7513 
Volume   = 3826.5 Pxx      = 6300.5 Pyy      = 5401.3 
Pzz      = 2653.11 Pxy      = 43.6799 Pxz      = -104.163 
Pyz      = -155.427 v_eb     = 0 v_ev     = 0 
v_et     = 0 v_ew     = -832.589 v_ep     = 0 
---------------- Step    23000 ----- CPU =      4.1964 (sec) ----------------
Step     =          23000 CPU      = 4.19639 Temp     =   3.5767053e-06 
Press    = 4892.23 PotEng   = -832.587 KinEng   = 8.83042e-08 
E_vdwl   = -832.587 E_coul   = 0 E_pair   = -832.587 
E_bond   = 0 E_angle  = 0 E_dihed  = 0 
Lx       = 10.8222 Ly       = 16.2534 Lz       = 21.7519 
Volume   = 3826.1 Pxx      = 6441.54 Pyy      = 5522.45 
Pzz      = 2712.69 Pxy      = 44.154 Pxz      = -106.464 
Pyz      = -158.871 v_eb     = 0 v_ev     = 0 
v_et     = 0 v_ew     = -832.587 v_ep     = 0 
---------------- Step    23500 ----- CPU =      4.2875 (sec) ----------------
Step     =          23500 CPU      = 4.28752 Temp     =   3.3888631e-06 
Press    = 4999.52 PotEng   = -832.585 KinEng   = 8.36666e-08 
E_vdwl   = -832.585 E_coul   = 0 E_pair   = -832.585 
E_bond   = 0 E_angle  = 0 E_dihed  = 0 
Lx       = 10.8213 Ly       = 16.2525 Lz       = 21.7525 
Volume   = 3825.7 Pxx      = 6582.62 Pyy      = 5643.64 
Pzz      = 2772.3 Pxy      = 44.8497 Pxz      = -108.774 
Pyz      = -162.361 v_eb     = 0 v_ev     = 0 
v_et     = 0 v_ew     = -832.585 v_ep     = 0 
---------------- Step    24000 ----- CPU =      4.3797 (sec) ----------------
Step     =          24000 CPU      = 4.37973 Temp     =   3.5195771e-06 
Press    = 5106.85 PotEng   = -832.584 KinEng   = 8.68937e-08 
E_vdwl   = -832.584 E_coul   = 0 E_pair   = -832.584 
E_bond   = 0 E_angle  = 0 E_dihed  = 0 
Lx       = 10.8205 Ly       = 16.2517 Lz       = 21.7531 
Volume   = 3825.3 Pxx      = 6723.74 Pyy      = 5764.88 
Pzz      = 2831.93 Pxy      = 45.7991 Pxz      = -111.096 
Pyz      = -165.894 v_eb     = 0 v_ev     = 0 
v_et     = 0 v_ew     = -832.584 v_ep     = 0 
---------------- Step    24500 ----- CPU =      4.4709 (sec) ----------------
Step     =          24500 CPU      = 4.47094 Temp     =   3.2451229e-06 
Press    = 5214.22 PotEng   = -832.582 KinEng   = 8.01178e-08 
E_vdwl   = -832.582 E_coul   = 0 E_pair   = -832.582 
E_bond   = 0 E_angle  = 0 E_dihed  = 0 
Lx       = 10.8196 Ly       = 16.2508 Lz       = 21.7537 
Volume   = 3824.9 Pxx      = 6864.91 Pyy      = 5886.17 
Pzz      = 2891.59 Pxy      = 46.9941 Pxz      = -113.429 
Pyz      = -169.462 v_eb     = 0 v_ev     = 0 
v_et     = 0 v_ew     = -832.582 v_ep     = 0 
---------------- Step    25000 ----- CPU =      4.5619 (sec) ----------------
Step     =          25000 CPU      = 4.56194 Temp     =   3.5911358e-06 
Press    = 5321.63 PotEng   = -832.58 KinEng   = 8.86604e-08 
E_vdwl   = -832.58 E_coul   = 0 E_pair   = -832.58 
E_bond   = 0 E_angle  = 0 E_dihed  = 0 
Lx       = 10.8188 Ly       = 16.2499 Lz       = 21.7544 
Volume   = 3824.5 Pxx      = 7006.12 Pyy      = 6007.51 
Pzz      = 2951.27 Pxy      = 48.3926 Pxz      = -115.771 
Pyz      = -173.054 v_eb     = 0 v_ev     = 0 
v_et     = 0 v_ew     = -832.58 v_ep     = 0 
---------------- Step    25084 ----- CPU =      4.5774 (sec) ----------------
Step     =          25084 CPU      = 4.57739 Temp     =   3.6780792e-06 
Press    = 5339.68 PotEng   = -832.58 KinEng   = 9.08069e-08 
E_vdwl   = -832.58 E_coul   = 0 E_pair   = -832.58 
E_bond   = 0 E_angle  = 0 E_dihed  = 0 
Lx       = 10.8186 Ly       = 16.2498 Lz       = 21.7545 
Volume   = 3824.44 Pxx      = 7029.85 Pyy      = 6027.9 
Pzz      = 2961.3 Pxy      = 48.4446 Pxz      = -116.157 
Pyz      = -173.589 v_eb     = 0 v_ev     = 0 
v_et     = 0 v_ew     = -832.58 v_ep     = 0 
Loop time of 4.57742 on 1 procs for 25080 steps with 192 atoms

Performance: 946.783 ns/day, 0.025 hours/ns, 5479.066 timesteps/s
100.0% CPU use with 1 MPI tasks x no OpenMP threads

MPI task timing breakdown:
Section |  min time  |  avg time  |  max time  |%varavg| %total
---------------------------------------------------------------
Pair    | 4.2915     | 4.2915     | 4.2915     |   0.0 | 93.75
Neigh   | 0          | 0          | 0          |   0.0 |  0.00
Comm    | 0.10221    | 0.10221    | 0.10221    |   0.0 |  2.23
Output  | 0.002039   | 0.002039   | 0.002039   |   0.0 |  0.04
Modify  | 0.14183    | 0.14183    | 0.14183    |   0.0 |  3.10
Other   |            | 0.03986    |            |       |  0.87

Nlocal:    192 ave 192 max 192 min
Histogram: 1 0 0 0 0 0 0 0 0 0
Nghost:    932 ave 932 max 932 min
Histogram: 1 0 0 0 0 0 0 0 0 0
Neighs:    0 ave 0 max 0 min
Histogram: 1 0 0 0 0 0 0 0 0 0
FullNghs:  6528 ave 6528 max 6528 min
Histogram: 1 0 0 0 0 0 0 0 0 0

Total # of neighbors = 6528
Ave neighs/atom = 34
Neighbor list builds = 0
Dangerous builds = 0

#  Releasing fix deform constraint
unfix 1

##  Setting 2fs timesteps
##timestep        dts #2.0  #(in wrapper)
#timestep        ${dts} #2.0
#
##  Running a molecular dynamics simulation for relaxation of applied strain
##  during the same amount of time
##run             nts #2000000  #(in wrapper)
#run             ${nts} #2000000

#  Releasing fix constraints
unfix 3
#unfix 4

#  Stopping dump
#undump            atom_dump

# Sample initial state
#variable nss equal ${nssample0}
#fix   shak all shake 0.001 20 1000 m 1.0
#fix   wholevol all nvt temp ${tempt} ${tempt} 100.0
#include ${locbe}/sample.mod.lammps
#unfix wholevol
#unfix shak

#variable tmp equal f_stress[1]
#variable pp11 equal ${tmp}
#variable tmp equal f_stress[2]
#variable pp22 equal ${tmp}
#variable tmp equal f_stress[3]
#variable pp33 equal ${tmp}
#variable tmp equal f_stress[4]
#variable pp12 equal ${tmp}
#variable tmp equal f_stress[5]
#variable pp13 equal ${tmp}
#variable tmp equal f_stress[6]
#variable pp23 equal ${tmp}
write_restart /home/jinzhen/projects/SCEMa/examples/test1/nanoscale_output/last.4.g0_1.dump
write_restart /home/jinzhen/projects/SCEMa/examples/test1/nanoscale_restart/lcts.4.g0_1.dump
Total wall time: 0:00:04
