LAMMPS (17 Nov 2016)
variable mdt string 0
variable loco string /home/jinzhen/projects/SCEMa/examples/test1/nanoscale_log/tmp/2-1.7.0_1
variable locs string ./lammps_scripts_sisw
variable tempt equal 0.010000
# This file is for a LAMMPS simulation created by James Suter
# The system is polyethane, using the CVFF forcefield
# the simulation will heat up to 500K, cooldown to 200K and then perform unixial stretching in the x direction

##  This script should be just run once at the beginning to provide the initial
##  reference testing box, which will the be evolved using the in.lammps.strain
##  input file.

## Should we optimize the lammps call depending on the computer setup?
## suffix OMP

#  Setting units convention for the rest of the file
units           real            # default

#  Setting variables/attributes associated with each atom: charge, bonds, angles,
#  dihedrals, impropers (full)
atom_style      full

#  Setting the dimension of the simulation
dimension       3               # default

#  Setting boundary types in each dimension (periodic)
boundary        p p p

# Choose potential
pair_style	sw

# Setup neighbor style
neighbor 1.0 nsq
neigh_modify once no every 1 delay 0 check yes
read_restart /home/jinzhen/projects/SCEMa/examples/test1/nanoscale_output/init.g0_1.bin
  triclinic box = (-0.000949778 -0.00142467 -0.00189956) to (10.8609 16.2914 21.7219) with tilt (0 0 0)
  1 by 1 by 1 MPI processor grid
  192 atoms
print 'initially computed'
initially computed
variable ll1 equal lx
variable ll2 equal ly
variable ll3 equal lz
variable dts equal 0.002000
variable nts equal 22970
variable ceeps_00 equal -7.812762e-05
variable ceeps_01 equal 2.401917e-06
variable ceeps_02 equal -8.885985e-06
variable ceeps_11 equal -5.177533e-05
variable ceeps_12 equal -1.321393e-05
variable ceeps_22 equal 2.634456e-05
# This file is for a LAMMPS simulation created by James Suter
# The system is polyethane, using the CVFF forcefield
# the simulation will heat up to 500K, cooldown to 200K and then perform unixial stretching in the x direction

## Should we optimize the lammps call depending on the computer setup?
## suffix OMP

pair_coeff * * ${locs}/Si.sw Si
pair_coeff * * ./lammps_scripts_sisw/Si.sw Si
Reading potential file ./lammps_scripts_sisw/Si.sw with DATE: 2007-06-11

variable eb      equal "ebond"
variable ea      equal "epair"
variable ev      equal "eangle"
variable et      equal "edihed"
variable ew      equal "evdwl"
variable ep      equal "ecoul"


##  -------------------------------------------
#   Calculate the stress-strain curve for uniaxial extension in the x direction

#  Setting to display thermodynamical information on the system every 500 steps
thermo          500

#  Setting the type of thermodynamical information to be printed: T, P, energies, dimesions, V, stress tensor
thermo_style    custom step cpu temp press pe ke evdwl ecoul epair ebond eangle edihed lx ly lz vol pxx pyy pzz pxy pxz pyz v_eb v_ev v_et v_ew v_ep

#  Setting the syntax of the printed thermodynamical information
thermo_modify   flush yes line multi format float %g format 3 %15.8g

#  Setting printing position information on all atoms every 5000 steps PE_stress_strain_x.xyz
#  file specifying atom type 1, 2 and 3 with names respectively C, C and H  (identical as
#  previous with different file name)
#dump            atom_dump all atom ${ndump} ${loco}/${mdt}_straining.atom
#dump            xyz_dump all xyz 5000    ${loco}/${mdt}_stress_strain_x.xyz
#dump_modify     xyz_dump element  C C H

#  Printing evolution of stress for comparison
variable pt equal "step"
variable pp equal "press"
variable p0 equal "pxx"
variable p1 equal "pyy"
variable p2 equal "pzz"
variable p10 equal "pxy"
variable p11 equal "pxz"
variable p12 equal "pyz"
variable p3 equal "pe"
variable p4 equal "ke"
variable p5 equal "temp"
variable p6 equal "lx"
variable p7 equal "ly"
variable p8 equal "lz"
variable p9 equal "vol"
variable evdwl equal "evdwl"
variable ecoul equal "ecoul"
variable eatom equal "epair"
variable ebond equal "ebond"
variable eangle equal "eangle"
variable edihed equal "edihed"

#  Storing initial dimensions of the box
variable lx1 equal ${p6}
variable lx1 equal 10.8618995568104
variable ly1 equal ${p7}
variable ly1 equal 16.2928493352156
variable lz1 equal ${p8}
variable lz1 equal 21.7237991136209

#  Compute current stress using sampling over time and fixed NVT conditions
#fix 1e all print 1 "${pt} ${pp} ${p0} ${p1} ${p2} ${p10} ${p11} ${p12} ${p3} ${p4} ${p5} ${p6} ${p7} ${p8} ${p9} ${evdwl} ${ecoul} ${eatom} ${ebond} ${eangle} ${edihed}" file ${loco}/${mdt}_strain_press_evol.dat screen no

#  Setting a Verlet time solution algorithm/integrator
run_style       verlet

#  Loading the same fix 4 as in the init.lammps set of commands.
#fix             4  all shake 0.001 20 1000 m 1.0  # SHAKE to keep bond distances / angles involving H-atoms fixe

#  Setting a global constraint of canonical ensemble on all atoms, the temperature is set constant at 200k
#  with a relaxation time of 100fs
#  > Is this done right, namely sufficiently constrained? Volume is later controlled by the fix deform
#  on all the components of the strain tensor...
#fix             3 all nvt temp 200.0 200.0 100
#fix             3 all langevin 200.0 200.0 100.0 699483
#fix             3 all nvt/sllod temp ${tempt} ${tempt} 100.0
fix             3 all nvt temp ${tempt} ${tempt} 100.0
fix             3 all nvt temp 0.01 ${tempt} 100.0
fix             3 all nvt temp 0.01 0.01 100.0

# Note: these computes are present by default in any input script when using thermo command
#compute thermo_press all temp
#compute thermo_press all pressure thermo_temp

#  Setting a strain constraint every 1 steps in the x-direction on the box at a strain rate of 1e-7 fs-1, position of
#  all atoms positions are remapped following an affine transformation, namely proportional to the box deformation.
##  Is it pertinent to remap the coordinates proportionaly to the applied
##  strains? Should we remap velocities? Or none?
##  This command might be moved to the C++ wrapper file (as well as all the
##  commands that can not be set before, probably just the run command, and
##  maybe timestep for practicality).
#print "${eeps_00} ${eeps_11} ${eeps_22} ${eeps_01} ${eeps_02} ${eeps_12}"
fix             1 all deform 1  x erate ${ceeps_00}                                 y erate ${ceeps_11}                                 z erate ${ceeps_22}                                xy erate ${ceeps_01}                                xz erate ${ceeps_02}                                yz erate ${ceeps_12}                                remap x
fix             1 all deform 1  x erate -7.812762e-05                                 y erate ${ceeps_11}                                 z erate ${ceeps_22}                                xy erate ${ceeps_01}                                xz erate ${ceeps_02}                                yz erate ${ceeps_12}                                remap x
fix             1 all deform 1  x erate -7.812762e-05                                 y erate -5.177533e-05                                 z erate ${ceeps_22}                                xy erate ${ceeps_01}                                xz erate ${ceeps_02}                                yz erate ${ceeps_12}                                remap x
fix             1 all deform 1  x erate -7.812762e-05                                 y erate -5.177533e-05                                 z erate 2.634456e-05                                xy erate ${ceeps_01}                                xz erate ${ceeps_02}                                yz erate ${ceeps_12}                                remap x
fix             1 all deform 1  x erate -7.812762e-05                                 y erate -5.177533e-05                                 z erate 2.634456e-05                                xy erate 2.401917e-06                                xz erate ${ceeps_02}                                yz erate ${ceeps_12}                                remap x
fix             1 all deform 1  x erate -7.812762e-05                                 y erate -5.177533e-05                                 z erate 2.634456e-05                                xy erate 2.401917e-06                                xz erate -8.885985e-06                                yz erate ${ceeps_12}                                remap x
fix             1 all deform 1  x erate -7.812762e-05                                 y erate -5.177533e-05                                 z erate 2.634456e-05                                xy erate 2.401917e-06                                xz erate -8.885985e-06                                yz erate -1.321393e-05                                remap x

#  Setting 2fs timesteps
#timestep        dts #2.0  #(in wrapper)
timestep        ${dts} #2.0
timestep        0.002 

#  Running a molecular dynamics simulation for 2000000 timesteps
#run             nts #2000000  #(in wrapper)
run             ${nts} #2000000
run             22970 
Neighbor list info ...
  1 neighbor list requests
  update every 1 steps, delay 0 steps, check yes
  max neighbors/atom: 2000, page size: 100000
  master list distance cutoff = 5.77118
  ghost atom cutoff = 5.77118
Memory usage per processor = 2.32678 Mbytes
---------------- Step        4 ----- CPU =      0.0000 (sec) ----------------
Step     =              4 CPU      = 0 Temp     =               0 
Press    = 6.34165e-05 PotEng   = -832.627 KinEng   = 0 
E_vdwl   = -832.627 E_coul   = 0 E_pair   = -832.627 
E_bond   = 0 E_angle  = 0 E_dihed  = 0 
Lx       = 10.8619 Ly       = 16.2928 Lz       = 21.7238 
Volume   = 3844.49 Pxx      = 6.68711e-05 Pyy      = 6.04409e-05 
Pzz      = 6.29375e-05 Pxy      = 1.66606 Pxz      = -0.0760888 
Pyz      = 0.43727 v_eb     = 0 v_ev     = 0 
v_et     = 0 v_ew     = -832.627 v_ep     = 0 
---------------- Step      500 ----- CPU =      0.0962 (sec) ----------------
Step     =            500 CPU      = 0.0962305 Temp     =   3.5598079e-06 
Press    = 104 PotEng   = -832.627 KinEng   = 8.7887e-08 
E_vdwl   = -832.627 E_coul   = 0 E_pair   = -832.627 
E_bond   = 0 E_angle  = 0 E_dihed  = 0 
Lx       = 10.8611 Ly       = 16.292 Lz       = 21.7244 
Volume   = 3844.09 Pxx      = 136.382 Pyy      = 116.817 
Pzz      = 58.8015 Pxy      = -1.4798 Pxz      = 4.93247 
Pyz      = 7.28644 v_eb     = 0 v_ev     = 0 
v_et     = 0 v_ew     = -832.627 v_ep     = 0 
---------------- Step     1000 ----- CPU =      0.1872 (sec) ----------------
Step     =           1000 CPU      = 0.187214 Temp     =   2.9424762e-06 
Press    = 209.089 PotEng   = -832.627 KinEng   = 7.26459e-08 
E_vdwl   = -832.627 E_coul   = 0 E_pair   = -832.627 
E_bond   = 0 E_angle  = 0 E_dihed  = 0 
Lx       = 10.8602 Ly       = 16.2912 Lz       = 21.7249 
Volume   = 3843.7 Pxx      = 274.184 Pyy      = 234.859 
Pzz      = 118.223 Pxy      = -3.93731 Pxz      = 10.0193 
Pyz      = 14.4897 v_eb     = 0 v_ev     = 0 
v_et     = 0 v_ew     = -832.627 v_ep     = 0 
---------------- Step     1500 ----- CPU =      0.2780 (sec) ----------------
Step     =           1500 CPU      = 0.278035 Temp     =   3.0400136e-06 
Press    = 314.216 PotEng   = -832.627 KinEng   = 7.50539e-08 
E_vdwl   = -832.627 E_coul   = 0 E_pair   = -832.627 
E_bond   = 0 E_angle  = 0 E_dihed  = 0 
Lx       = 10.8594 Ly       = 16.2903 Lz       = 21.7255 
Volume   = 3843.3 Pxx      = 412.029 Pyy      = 352.948 
Pzz      = 177.671 Pxy      = -5.72622 Pxz      = 15.0878 
Pyz      = 21.8845 v_eb     = 0 v_ev     = 0 
v_et     = 0 v_ew     = -832.627 v_ep     = 0 
---------------- Step     2000 ----- CPU =      0.3687 (sec) ----------------
Step     =           2000 CPU      = 0.368695 Temp     =   3.7000647e-06 
Press    = 419.38 PotEng   = -832.627 KinEng   = 9.13497e-08 
E_vdwl   = -832.627 E_coul   = 0 E_pair   = -832.627 
E_bond   = 0 E_angle  = 0 E_dihed  = 0 
Lx       = 10.8585 Ly       = 16.2895 Lz       = 21.7261 
Volume   = 3842.9 Pxx      = 549.915 Pyy      = 471.082 
Pzz      = 237.144 Pxy      = -6.63962 Pxz      = 20.1135 
Pyz      = 29.4989 v_eb     = 0 v_ev     = 0 
v_et     = 0 v_ew     = -832.627 v_ep     = 0 
---------------- Step     2500 ----- CPU =      0.4622 (sec) ----------------
Step     =           2500 CPU      = 0.462175 Temp     =   3.9155243e-06 
Press    = 524.583 PotEng   = -832.627 KinEng   = 9.66692e-08 
E_vdwl   = -832.627 E_coul   = 0 E_pair   = -832.627 
E_bond   = 0 E_angle  = 0 E_dihed  = 0 
Lx       = 10.8577 Ly       = 16.2886 Lz       = 21.7267 
Volume   = 3842.5 Pxx      = 687.844 Pyy      = 589.261 
Pzz      = 296.645 Pxy      = -6.92979 Pxz      = 25.0945 
Pyz      = 37.2491 v_eb     = 0 v_ev     = 0 
v_et     = 0 v_ew     = -832.627 v_ep     = 0 
---------------- Step     3000 ----- CPU =      0.5542 (sec) ----------------
Step     =           3000 CPU      = 0.554162 Temp     =   3.6897941e-06 
Press    = 629.824 PotEng   = -832.627 KinEng   = 9.10962e-08 
E_vdwl   = -832.627 E_coul   = 0 E_pair   = -832.627 
E_bond   = 0 E_angle  = 0 E_dihed  = 0 
Lx       = 10.8568 Ly       = 16.2878 Lz       = 21.7272 
Volume   = 3842.1 Pxx      = 825.815 Pyy      = 707.487 
Pzz      = 356.171 Pxy      = -7.15001 Pxz      = 30.0511 
Pyz      = 44.9907 v_eb     = 0 v_ev     = 0 
v_et     = 0 v_ew     = -832.627 v_ep     = 0 
---------------- Step     3500 ----- CPU =      0.6450 (sec) ----------------
Step     =           3500 CPU      = 0.644971 Temp     =   3.5622629e-06 
Press    = 735.103 PotEng   = -832.626 KinEng   = 8.79476e-08 
E_vdwl   = -832.626 E_coul   = 0 E_pair   = -832.626 
E_bond   = 0 E_angle  = 0 E_dihed  = 0 
Lx       = 10.856 Ly       = 16.287 Lz       = 21.7278 
Volume   = 3841.71 Pxx      = 963.828 Pyy      = 825.758 
Pzz      = 415.724 Pxy      = -7.86101 Pxz      = 35.0134 
Pyz      = 52.5924 v_eb     = 0 v_ev     = 0 
v_et     = 0 v_ew     = -832.626 v_ep     = 0 
---------------- Step     4000 ----- CPU =      0.7362 (sec) ----------------
Step     =           4000 CPU      = 0.736171 Temp     =   3.1979833e-06 
Press    = 840.42 PotEng   = -832.626 KinEng   = 7.8954e-08 
E_vdwl   = -832.626 E_coul   = 0 E_pair   = -832.626 
E_bond   = 0 E_angle  = 0 E_dihed  = 0 
Lx       = 10.8551 Ly       = 16.2861 Lz       = 21.7284 
Volume   = 3841.31 Pxx      = 1101.88 Pyy      = 944.076 
Pzz      = 475.302 Pxy      = -9.35974 Pxz      = 40.0078 
Pyz      = 59.9964 v_eb     = 0 v_ev     = 0 
v_et     = 0 v_ew     = -832.626 v_ep     = 0 
---------------- Step     4500 ----- CPU =      0.8279 (sec) ----------------
Step     =           4500 CPU      = 0.82793 Temp     =    3.536317e-06 
Press    = 945.776 PotEng   = -832.626 KinEng   = 8.7307e-08 
E_vdwl   = -832.626 E_coul   = 0 E_pair   = -832.626 
E_bond   = 0 E_angle  = 0 E_dihed  = 0 
Lx       = 10.8543 Ly       = 16.2853 Lz       = 21.7289 
Volume   = 3840.91 Pxx      = 1239.98 Pyy      = 1062.44 
Pzz      = 534.908 Pxy      = -11.5575 Pxz      = 45.0455 
Pyz      = 67.2386 v_eb     = 0 v_ev     = 0 
v_et     = 0 v_ew     = -832.626 v_ep     = 0 
---------------- Step     5000 ----- CPU =      0.9217 (sec) ----------------
Step     =           5000 CPU      = 0.921748 Temp     =   3.5342027e-06 
Press    = 1051.17 PotEng   = -832.625 KinEng   = 8.72548e-08 
E_vdwl   = -832.625 E_coul   = 0 E_pair   = -832.625 
E_bond   = 0 E_angle  = 0 E_dihed  = 0 
Lx       = 10.8534 Ly       = 16.2844 Lz       = 21.7295 
Volume   = 3840.51 Pxx      = 1378.12 Pyy      = 1180.85 
Pzz      = 594.539 Pxy      = -14.0481 Pxz      = 50.1196 
Pyz      = 74.4242 v_eb     = 0 v_ev     = 0 
v_et     = 0 v_ew     = -832.625 v_ep     = 0 
---------------- Step     5500 ----- CPU =      1.0133 (sec) ----------------
Step     =           5500 CPU      = 1.01328 Temp     =   3.5723377e-06 
Press    = 1156.6 PotEng   = -832.625 KinEng   = 8.81963e-08 
E_vdwl   = -832.625 E_coul   = 0 E_pair   = -832.625 
E_bond   = 0 E_angle  = 0 E_dihed  = 0 
Lx       = 10.8526 Ly       = 16.2836 Lz       = 21.7301 
Volume   = 3840.11 Pxx      = 1516.3 Pyy      = 1299.3 
Pzz      = 654.197 Pxy      = -16.3146 Pxz      = 55.2093 
Pyz      = 81.6764 v_eb     = 0 v_ev     = 0 
v_et     = 0 v_ew     = -832.625 v_ep     = 0 
---------------- Step     6000 ----- CPU =      1.1039 (sec) ----------------
Step     =           6000 CPU      = 1.10391 Temp     =   2.8781372e-06 
Press    = 1262.07 PotEng   = -832.625 KinEng   = 7.10574e-08 
E_vdwl   = -832.625 E_coul   = 0 E_pair   = -832.625 
E_bond   = 0 E_angle  = 0 E_dihed  = 0 
Lx       = 10.8517 Ly       = 16.2827 Lz       = 21.7307 
Volume   = 3839.71 Pxx      = 1654.53 Pyy      = 1417.8 
Pzz      = 713.881 Pxy      = -17.9658 Pxz      = 60.289 
Pyz      = 89.0831 v_eb     = 0 v_ev     = 0 
v_et     = 0 v_ew     = -832.625 v_ep     = 0 
---------------- Step     6500 ----- CPU =      1.1944 (sec) ----------------
Step     =           6500 CPU      = 1.19442 Temp     =   3.1264823e-06 
Press    = 1367.58 PotEng   = -832.624 KinEng   = 7.71887e-08 
E_vdwl   = -832.624 E_coul   = 0 E_pair   = -832.624 
E_bond   = 0 E_angle  = 0 E_dihed  = 0 
Lx       = 10.8509 Ly       = 16.2819 Lz       = 21.7312 
Volume   = 3839.32 Pxx      = 1792.79 Pyy      = 1536.35 
Pzz      = 773.592 Pxy      = -18.8964 Pxz      = 65.3384 
Pyz      = 96.6645 v_eb     = 0 v_ev     = 0 
v_et     = 0 v_ew     = -832.624 v_ep     = 0 
---------------- Step     7000 ----- CPU =      1.2851 (sec) ----------------
Step     =           7000 CPU      = 1.28508 Temp     =   3.7824437e-06 
Press    = 1473.13 PotEng   = -832.624 KinEng   = 9.33836e-08 
E_vdwl   = -832.624 E_coul   = 0 E_pair   = -832.624 
E_bond   = 0 E_angle  = 0 E_dihed  = 0 
Lx       = 10.85 Ly       = 16.281 Lz       = 21.7318 
Volume   = 3838.92 Pxx      = 1931.1 Pyy      = 1654.94 
Pzz      = 833.328 Pxy      = -19.3099 Pxz      = 70.3496 
Pyz      = 104.371 v_eb     = 0 v_ev     = 0 
v_et     = 0 v_ew     = -832.624 v_ep     = 0 
---------------- Step     7500 ----- CPU =      1.3762 (sec) ----------------
Step     =           7500 CPU      = 1.37624 Temp     =   3.5806159e-06 
Press    = 1578.71 PotEng   = -832.623 KinEng   = 8.84007e-08 
E_vdwl   = -832.623 E_coul   = 0 E_pair   = -832.623 
E_bond   = 0 E_angle  = 0 E_dihed  = 0 
Lx       = 10.8492 Ly       = 16.2802 Lz       = 21.7324 
Volume   = 3838.52 Pxx      = 2069.45 Pyy      = 1773.58 
Pzz      = 893.092 Pxy      = -19.612 Pxz      = 75.3285 
Pyz      = 112.11 v_eb     = 0 v_ev     = 0 
v_et     = 0 v_ew     = -832.623 v_ep     = 0 
---------------- Step     8000 ----- CPU =      1.4675 (sec) ----------------
Step     =           8000 CPU      = 1.46746 Temp     =   3.6656545e-06 
Press    = 1684.33 PotEng   = -832.622 KinEng   = 9.05002e-08 
E_vdwl   = -832.622 E_coul   = 0 E_pair   = -832.622 
E_bond   = 0 E_angle  = 0 E_dihed  = 0 
Lx       = 10.8483 Ly       = 16.2794 Lz       = 21.733 
Volume   = 3838.12 Pxx      = 2207.85 Pyy      = 1892.27 
Pzz      = 952.881 Pxy      = -20.2311 Pxz      = 80.2922 
Pyz      = 119.782 v_eb     = 0 v_ev     = 0 
v_et     = 0 v_ew     = -832.622 v_ep     = 0 
---------------- Step     8500 ----- CPU =      1.5582 (sec) ----------------
Step     =           8500 CPU      = 1.55825 Temp     =   3.8714792e-06 
Press    = 1789.99 PotEng   = -832.622 KinEng   = 9.55817e-08 
E_vdwl   = -832.622 E_coul   = 0 E_pair   = -832.622 
E_bond   = 0 E_angle  = 0 E_dihed  = 0 
Lx       = 10.8475 Ly       = 16.2785 Lz       = 21.7335 
Volume   = 3837.72 Pxx      = 2346.29 Pyy      = 2011 
Pzz      = 1012.7 Pxy      = -21.4479 Pxz      = 85.2628 
Pyz      = 127.32 v_eb     = 0 v_ev     = 0 
v_et     = 0 v_ew     = -832.622 v_ep     = 0 
---------------- Step     9000 ----- CPU =      1.6490 (sec) ----------------
Step     =           9000 CPU      = 1.64904 Temp     =   3.3106586e-06 
Press    = 1895.69 PotEng   = -832.621 KinEng   = 8.17358e-08 
E_vdwl   = -832.621 E_coul   = 0 E_pair   = -832.621 
E_bond   = 0 E_angle  = 0 E_dihed  = 0 
Lx       = 10.8466 Ly       = 16.2777 Lz       = 21.7341 
Volume   = 3837.33 Pxx      = 2484.76 Pyy      = 2129.78 
Pzz      = 1072.54 Pxy      = -23.2989 Pxz      = 90.2599 
Pyz      = 134.71 v_eb     = 0 v_ev     = 0 
v_et     = 0 v_ew     = -832.621 v_ep     = 0 
---------------- Step     9500 ----- CPU =      1.7398 (sec) ----------------
Step     =           9500 CPU      = 1.7398 Temp     =   3.2321057e-06 
Press    = 2001.43 PotEng   = -832.621 KinEng   = 7.97964e-08 
E_vdwl   = -832.621 E_coul   = 0 E_pair   = -832.621 
E_bond   = 0 E_angle  = 0 E_dihed  = 0 
Lx       = 10.8458 Ly       = 16.2768 Lz       = 21.7347 
Volume   = 3836.93 Pxx      = 2623.28 Pyy      = 2248.6 
Pzz      = 1132.41 Pxy      = -25.582 Pxz      = 95.2948 
Pyz      = 141.987 v_eb     = 0 v_ev     = 0 
v_et     = 0 v_ew     = -832.621 v_ep     = 0 
---------------- Step    10000 ----- CPU =      1.8309 (sec) ----------------
Step     =          10000 CPU      = 1.83091 Temp     =   3.9236719e-06 
Press    = 2107.21 PotEng   = -832.62 KinEng   = 9.68703e-08 
E_vdwl   = -832.62 E_coul   = 0 E_pair   = -832.62 
E_bond   = 0 E_angle  = 0 E_dihed  = 0 
Lx       = 10.8449 Ly       = 16.276 Lz       = 21.7352 
Volume   = 3836.53 Pxx      = 2761.85 Pyy      = 2367.47 
Pzz      = 1192.3 Pxy      = -27.9493 Pxz      = 100.367 
Pyz      = 149.222 v_eb     = 0 v_ev     = 0 
v_et     = 0 v_ew     = -832.62 v_ep     = 0 
---------------- Step    10500 ----- CPU =      1.9221 (sec) ----------------
Step     =          10500 CPU      = 1.92214 Temp     =   3.1661398e-06 
Press    = 2213.02 PotEng   = -832.619 KinEng   = 7.81678e-08 
E_vdwl   = -832.619 E_coul   = 0 E_pair   = -832.619 
E_bond   = 0 E_angle  = 0 E_dihed  = 0 
Lx       = 10.8441 Ly       = 16.2751 Lz       = 21.7358 
Volume   = 3836.13 Pxx      = 2900.45 Pyy      = 2486.38 
Pzz      = 1252.23 Pxy      = -30.0434 Pxz      = 105.467 
Pyz      = 156.494 v_eb     = 0 v_ev     = 0 
v_et     = 0 v_ew     = -832.619 v_ep     = 0 
---------------- Step    11000 ----- CPU =      2.0133 (sec) ----------------
Step     =          11000 CPU      = 2.01333 Temp     =   3.3066511e-06 
Press    = 2318.87 PotEng   = -832.618 KinEng   = 8.16369e-08 
E_vdwl   = -832.618 E_coul   = 0 E_pair   = -832.618 
E_bond   = 0 E_angle  = 0 E_dihed  = 0 
Lx       = 10.8432 Ly       = 16.2743 Lz       = 21.7364 
Volume   = 3835.73 Pxx      = 3039.1 Pyy      = 2605.35 
Pzz      = 1312.17 Pxy      = -31.6227 Pxz      = 110.574 
Pyz      = 163.864 v_eb     = 0 v_ev     = 0 
v_et     = 0 v_ew     = -832.618 v_ep     = 0 
---------------- Step    11500 ----- CPU =      2.1047 (sec) ----------------
Step     =          11500 CPU      = 2.10471 Temp     =   3.2717866e-06 
Press    = 2424.76 PotEng   = -832.617 KinEng   = 8.07761e-08 
E_vdwl   = -832.617 E_coul   = 0 E_pair   = -832.617 
E_bond   = 0 E_angle  = 0 E_dihed  = 0 
Lx       = 10.8424 Ly       = 16.2735 Lz       = 21.737 
Volume   = 3835.34 Pxx      = 3177.79 Pyy      = 2724.35 
Pzz      = 1372.15 Pxy      = -32.6338 Pxz      = 115.668 
Pyz      = 171.361 v_eb     = 0 v_ev     = 0 
v_et     = 0 v_ew     = -832.617 v_ep     = 0 
---------------- Step    12000 ----- CPU =      2.1962 (sec) ----------------
Step     =          12000 CPU      = 2.19619 Temp     =   3.7826357e-06 
Press    = 2530.69 PotEng   = -832.617 KinEng   = 9.33883e-08 
E_vdwl   = -832.617 E_coul   = 0 E_pair   = -832.617 
E_bond   = 0 E_angle  = 0 E_dihed  = 0 
Lx       = 10.8415 Ly       = 16.2726 Lz       = 21.7375 
Volume   = 3834.94 Pxx      = 3316.52 Pyy      = 2843.41 
Pzz      = 1432.15 Pxy      = -33.2133 Pxz      = 120.733 
Pyz      = 178.974 v_eb     = 0 v_ev     = 0 
v_et     = 0 v_ew     = -832.617 v_ep     = 0 
---------------- Step    12500 ----- CPU =      2.2872 (sec) ----------------
Step     =          12500 CPU      = 2.28717 Temp     =   3.4089732e-06 
Press    = 2636.66 PotEng   = -832.616 KinEng   = 8.41631e-08 
E_vdwl   = -832.616 E_coul   = 0 E_pair   = -832.616 
E_bond   = 0 E_angle  = 0 E_dihed  = 0 
Lx       = 10.8407 Ly       = 16.2718 Lz       = 21.7381 
Volume   = 3834.54 Pxx      = 3455.3 Pyy      = 2962.51 
Pzz      = 1492.18 Pxy      = -33.6276 Pxz      = 125.76 
Pyz      = 186.66 v_eb     = 0 v_ev     = 0 
v_et     = 0 v_ew     = -832.616 v_ep     = 0 
---------------- Step    13000 ----- CPU =      2.3778 (sec) ----------------
Step     =          13000 CPU      = 2.3778 Temp     =   3.4666571e-06 
Press    = 2742.67 PotEng   = -832.615 KinEng   = 8.55872e-08 
E_vdwl   = -832.615 E_coul   = 0 E_pair   = -832.615 
E_bond   = 0 E_angle  = 0 E_dihed  = 0 
Lx       = 10.8398 Ly       = 16.2709 Lz       = 21.7387 
Volume   = 3834.14 Pxx      = 3594.12 Pyy      = 3081.65 
Pzz      = 1552.23 Pxy      = -34.1784 Pxz      = 130.749 
Pyz      = 194.365 v_eb     = 0 v_ev     = 0 
v_et     = 0 v_ew     = -832.615 v_ep     = 0 
---------------- Step    13500 ----- CPU =      2.4692 (sec) ----------------
Step     =          13500 CPU      = 2.46918 Temp     =   3.1219651e-06 
Press    = 2848.71 PotEng   = -832.614 KinEng   = 7.70772e-08 
E_vdwl   = -832.614 E_coul   = 0 E_pair   = -832.614 
E_bond   = 0 E_angle  = 0 E_dihed  = 0 
Lx       = 10.839 Ly       = 16.2701 Lz       = 21.7392 
Volume   = 3833.74 Pxx      = 3732.98 Pyy      = 3200.84 
Pzz      = 1612.31 Pxy      = -35.107 Pxz      = 135.713 
Pyz      = 202.03 v_eb     = 0 v_ev     = 0 
v_et     = 0 v_ew     = -832.614 v_ep     = 0 
---------------- Step    14000 ----- CPU =      2.5601 (sec) ----------------
Step     =          14000 CPU      = 2.56014 Temp     =   3.2318806e-06 
Press    = 2954.8 PotEng   = -832.613 KinEng   = 7.97909e-08 
E_vdwl   = -832.613 E_coul   = 0 E_pair   = -832.613 
E_bond   = 0 E_angle  = 0 E_dihed  = 0 
Lx       = 10.8381 Ly       = 16.2692 Lz       = 21.7398 
Volume   = 3833.35 Pxx      = 3871.88 Pyy      = 3320.08 
Pzz      = 1672.42 Pxy      = -36.5282 Pxz      = 140.668 
Pyz      = 209.616 v_eb     = 0 v_ev     = 0 
v_et     = 0 v_ew     = -832.613 v_ep     = 0 
---------------- Step    14500 ----- CPU =      2.6510 (sec) ----------------
Step     =          14500 CPU      = 2.65098 Temp     =   3.5690634e-06 
Press    = 3060.92 PotEng   = -832.612 KinEng   = 8.81155e-08 
E_vdwl   = -832.612 E_coul   = 0 E_pair   = -832.612 
E_bond   = 0 E_angle  = 0 E_dihed  = 0 
Lx       = 10.8373 Ly       = 16.2684 Lz       = 21.7404 
Volume   = 3832.95 Pxx      = 4010.83 Pyy      = 3439.37 
Pzz      = 1732.55 Pxy      = -38.4083 Pxz      = 145.635 
Pyz      = 217.105 v_eb     = 0 v_ev     = 0 
v_et     = 0 v_ew     = -832.612 v_ep     = 0 
---------------- Step    15000 ----- CPU =      2.7419 (sec) ----------------
Step     =          15000 CPU      = 2.74192 Temp     =   3.5998187e-06 
Press    = 3167.08 PotEng   = -832.61 KinEng   = 8.88748e-08 
E_vdwl   = -832.61 E_coul   = 0 E_pair   = -832.61 
E_bond   = 0 E_angle  = 0 E_dihed  = 0 
Lx       = 10.8364 Ly       = 16.2675 Lz       = 21.741 
Volume   = 3832.55 Pxx      = 4149.81 Pyy      = 3558.7 
Pzz      = 1792.72 Pxy      = -40.5884 Pxz      = 150.633 
Pyz      = 224.504 v_eb     = 0 v_ev     = 0 
v_et     = 0 v_ew     = -832.61 v_ep     = 0 
---------------- Step    15500 ----- CPU =      2.8329 (sec) ----------------
Step     =          15500 CPU      = 2.83288 Temp     =   3.6673125e-06 
Press    = 3273.28 PotEng   = -832.609 KinEng   = 9.05411e-08 
E_vdwl   = -832.609 E_coul   = 0 E_pair   = -832.609 
E_bond   = 0 E_angle  = 0 E_dihed  = 0 
Lx       = 10.8356 Ly       = 16.2667 Lz       = 21.7415 
Volume   = 3832.15 Pxx      = 4288.84 Pyy      = 3678.08 
Pzz      = 1852.9 Pxy      = -42.8389 Pxz      = 155.671 
Pyz      = 231.838 v_eb     = 0 v_ev     = 0 
v_et     = 0 v_ew     = -832.609 v_ep     = 0 
---------------- Step    16000 ----- CPU =      2.9243 (sec) ----------------
Step     =          16000 CPU      = 2.92429 Temp     =   3.0054847e-06 
Press    = 3379.51 PotEng   = -832.608 KinEng   = 7.42015e-08 
E_vdwl   = -832.608 E_coul   = 0 E_pair   = -832.608 
E_bond   = 0 E_angle  = 0 E_dihed  = 0 
Lx       = 10.8348 Ly       = 16.2659 Lz       = 21.7421 
Volume   = 3831.75 Pxx      = 4427.92 Pyy      = 3797.5 
Pzz      = 1913.12 Pxy      = -44.9277 Pxz      = 160.753 
Pyz      = 239.146 v_eb     = 0 v_ev     = 0 
v_et     = 0 v_ew     = -832.608 v_ep     = 0 
---------------- Step    16500 ----- CPU =      3.0153 (sec) ----------------
Step     =          16500 CPU      = 3.0153 Temp     =   3.4007738e-06 
Press    = 3485.79 PotEng   = -832.607 KinEng   = 8.39606e-08 
E_vdwl   = -832.607 E_coul   = 0 E_pair   = -832.607 
E_bond   = 0 E_angle  = 0 E_dihed  = 0 
Lx       = 10.8339 Ly       = 16.265 Lz       = 21.7427 
Volume   = 3831.36 Pxx      = 4567.03 Pyy      = 3916.97 
Pzz      = 1973.36 Pxy      = -46.68 Pxz      = 165.871 
Pyz      = 246.466 v_eb     = 0 v_ev     = 0 
v_et     = 0 v_ew     = -832.607 v_ep     = 0 
---------------- Step    17000 ----- CPU =      3.1061 (sec) ----------------
Step     =          17000 CPU      = 3.10611 Temp     =   3.3742927e-06 
Press    = 3592.1 PotEng   = -832.606 KinEng   = 8.33069e-08 
E_vdwl   = -832.606 E_coul   = 0 E_pair   = -832.606 
E_bond   = 0 E_angle  = 0 E_dihed  = 0 
Lx       = 10.8331 Ly       = 16.2642 Lz       = 21.7433 
Volume   = 3830.96 Pxx      = 4706.19 Pyy      = 4036.49 
Pzz      = 2033.62 Pxy      = -48.0166 Pxz      = 171.01 
Pyz      = 253.83 v_eb     = 0 v_ev     = 0 
v_et     = 0 v_ew     = -832.606 v_ep     = 0 
---------------- Step    17500 ----- CPU =      3.1966 (sec) ----------------
Step     =          17500 CPU      = 3.19665 Temp     =   2.8257118e-06 
Press    = 3698.45 PotEng   = -832.604 KinEng   = 6.97631e-08 
E_vdwl   = -832.604 E_coul   = 0 E_pair   = -832.604 
E_bond   = 0 E_angle  = 0 E_dihed  = 0 
Lx       = 10.8322 Ly       = 16.2633 Lz       = 21.7438 
Volume   = 3830.56 Pxx      = 4845.39 Pyy      = 4156.05 
Pzz      = 2093.92 Pxy      = -48.9636 Pxz      = 176.153 
Pyz      = 261.258 v_eb     = 0 v_ev     = 0 
v_et     = 0 v_ew     = -832.604 v_ep     = 0 
---------------- Step    18000 ----- CPU =      3.2874 (sec) ----------------
Step     =          18000 CPU      = 3.28738 Temp     =   4.0874424e-06 
Press    = 3804.84 PotEng   = -832.603 KinEng   = 1.00914e-07 
E_vdwl   = -832.603 E_coul   = 0 E_pair   = -832.603 
E_bond   = 0 E_angle  = 0 E_dihed  = 0 
Lx       = 10.8314 Ly       = 16.2625 Lz       = 21.7444 
Volume   = 3830.16 Pxx      = 4984.63 Pyy      = 4275.66 
Pzz      = 2154.24 Pxy      = -49.6358 Pxz      = 181.281 
Pyz      = 268.756 v_eb     = 0 v_ev     = 0 
v_et     = 0 v_ew     = -832.603 v_ep     = 0 
---------------- Step    18500 ----- CPU =      3.3781 (sec) ----------------
Step     =          18500 CPU      = 3.37809 Temp     =   3.6541906e-06 
Press    = 3911.27 PotEng   = -832.602 KinEng   = 9.02172e-08 
E_vdwl   = -832.602 E_coul   = 0 E_pair   = -832.602 
E_bond   = 0 E_angle  = 0 E_dihed  = 0 
Lx       = 10.8305 Ly       = 16.2616 Lz       = 21.745 
Volume   = 3829.76 Pxx      = 5123.92 Pyy      = 4395.32 
Pzz      = 2214.59 Pxy      = -50.2017 Pxz      = 186.377 
Pyz      = 276.318 v_eb     = 0 v_ev     = 0 
v_et     = 0 v_ew     = -832.602 v_ep     = 0 
---------------- Step    19000 ----- CPU =      3.4693 (sec) ----------------
Step     =          19000 CPU      = 3.46933 Temp     =   3.3692747e-06 
Press    = 4017.74 PotEng   = -832.6 KinEng   = 8.3183e-08 
E_vdwl   = -832.6 E_coul   = 0 E_pair   = -832.6 
E_bond   = 0 E_angle  = 0 E_dihed  = 0 
Lx       = 10.8297 Ly       = 16.2608 Lz       = 21.7455 
Volume   = 3829.37 Pxx      = 5263.25 Pyy      = 4515.02 
Pzz      = 2274.96 Pxy      = -50.84 Pxz      = 191.432 
Pyz      = 283.927 v_eb     = 0 v_ev     = 0 
v_et     = 0 v_ew     = -832.6 v_ep     = 0 
---------------- Step    19500 ----- CPU =      3.5607 (sec) ----------------
Step     =          19500 CPU      = 3.56071 Temp     =   2.9680025e-06 
Press    = 4124.25 PotEng   = -832.599 KinEng   = 7.32761e-08 
E_vdwl   = -832.599 E_coul   = 0 E_pair   = -832.599 
E_bond   = 0 E_angle  = 0 E_dihed  = 0 
Lx       = 10.8288 Ly       = 16.26 Lz       = 21.7461 
Volume   = 3828.97 Pxx      = 5402.62 Pyy      = 4634.77 
Pzz      = 2335.36 Pxy      = -51.7008 Pxz      = 196.445 
Pyz      = 291.562 v_eb     = 0 v_ev     = 0 
v_et     = 0 v_ew     = -832.599 v_ep     = 0 
---------------- Step    20000 ----- CPU =      3.6516 (sec) ----------------
Step     =          20000 CPU      = 3.6516 Temp     =   3.9180141e-06 
Press    = 4230.79 PotEng   = -832.597 KinEng   = 9.67306e-08 
E_vdwl   = -832.597 E_coul   = 0 E_pair   = -832.597 
E_bond   = 0 E_angle  = 0 E_dihed  = 0 
Lx       = 10.828 Ly       = 16.2591 Lz       = 21.7467 
Volume   = 3828.57 Pxx      = 5542.03 Pyy      = 4754.56 
Pzz      = 2395.79 Pxy      = -52.8773 Pxz      = 201.42 
Pyz      = 299.201 v_eb     = 0 v_ev     = 0 
v_et     = 0 v_ew     = -832.597 v_ep     = 0 
---------------- Step    20500 ----- CPU =      3.7425 (sec) ----------------
Step     =          20500 CPU      = 3.74247 Temp     =   3.9009224e-06 
Press    = 4337.38 PotEng   = -832.596 KinEng   = 9.63087e-08 
E_vdwl   = -832.596 E_coul   = 0 E_pair   = -832.596 
E_bond   = 0 E_angle  = 0 E_dihed  = 0 
Lx       = 10.8271 Ly       = 16.2583 Lz       = 21.7473 
Volume   = 3828.17 Pxx      = 5681.49 Pyy      = 4874.4 
Pzz      = 2456.24 Pxy      = -54.393 Pxz      = 206.371 
Pyz      = 306.826 v_eb     = 0 v_ev     = 0 
v_et     = 0 v_ew     = -832.596 v_ep     = 0 
---------------- Step    21000 ----- CPU =      3.8334 (sec) ----------------
Step     =          21000 CPU      = 3.83345 Temp     =   3.7869707e-06 
Press    = 4444 PotEng   = -832.594 KinEng   = 9.34953e-08 
E_vdwl   = -832.594 E_coul   = 0 E_pair   = -832.594 
E_bond   = 0 E_angle  = 0 E_dihed  = 0 
Lx       = 10.8263 Ly       = 16.2574 Lz       = 21.7478 
Volume   = 3827.77 Pxx      = 5820.99 Pyy      = 4994.29 
Pzz      = 2516.72 Pxy      = -56.205 Pxz      = 211.311 
Pyz      = 314.423 v_eb     = 0 v_ev     = 0 
v_et     = 0 v_ew     = -832.594 v_ep     = 0 
---------------- Step    21500 ----- CPU =      3.9241 (sec) ----------------
Step     =          21500 CPU      = 3.92409 Temp     =   3.2890757e-06 
Press    = 4550.66 PotEng   = -832.593 KinEng   = 8.1203e-08 
E_vdwl   = -832.593 E_coul   = 0 E_pair   = -832.593 
E_bond   = 0 E_angle  = 0 E_dihed  = 0 
Lx       = 10.8254 Ly       = 16.2566 Lz       = 21.7484 
Volume   = 3827.38 Pxx      = 5960.53 Pyy      = 5114.23 
Pzz      = 2577.23 Pxy      = -58.2198 Pxz      = 216.258 
Pyz      = 321.985 v_eb     = 0 v_ev     = 0 
v_et     = 0 v_ew     = -832.593 v_ep     = 0 
---------------- Step    22000 ----- CPU =      4.0151 (sec) ----------------
Step     =          22000 CPU      = 4.01509 Temp     =   3.7335911e-06 
Press    = 4657.36 PotEng   = -832.591 KinEng   = 9.21775e-08 
E_vdwl   = -832.591 E_coul   = 0 E_pair   = -832.591 
E_bond   = 0 E_angle  = 0 E_dihed  = 0 
Lx       = 10.8246 Ly       = 16.2557 Lz       = 21.749 
Volume   = 3826.98 Pxx      = 6100.11 Pyy      = 5234.21 
Pzz      = 2637.77 Pxy      = -60.3158 Pxz      = 221.226 
Pyz      = 329.51 v_eb     = 0 v_ev     = 0 
v_et     = 0 v_ew     = -832.591 v_ep     = 0 
---------------- Step    22500 ----- CPU =      4.1061 (sec) ----------------
Step     =          22500 CPU      = 4.10611 Temp     =   4.1647689e-06 
Press    = 4764.1 PotEng   = -832.59 KinEng   = 1.02823e-07 
E_vdwl   = -832.59 E_coul   = 0 E_pair   = -832.59 
E_bond   = 0 E_angle  = 0 E_dihed  = 0 
Lx       = 10.8237 Ly       = 16.2549 Lz       = 21.7495 
Volume   = 3826.58 Pxx      = 6239.74 Pyy      = 5354.23 
Pzz      = 2698.33 Pxy      = -62.368 Pxz      = 226.227 
Pyz      = 337.002 v_eb     = 0 v_ev     = 0 
v_et     = 0 v_ew     = -832.59 v_ep     = 0 
---------------- Step    22974 ----- CPU =      4.1925 (sec) ----------------
Step     =          22974 CPU      = 4.19251 Temp     =    3.230762e-06 
Press    = 4865.32 PotEng   = -832.588 KinEng   = 7.97633e-08 
E_vdwl   = -832.588 E_coul   = 0 E_pair   = -832.588 
E_bond   = 0 E_angle  = 0 E_dihed  = 0 
Lx       = 10.8229 Ly       = 16.2541 Lz       = 21.7501 
Volume   = 3826.2 Pxx      = 6372.14 Pyy      = 5468.06 
Pzz      = 2755.77 Pxy      = -63.6424 Pxz      = 231.017 
Pyz      = 344.119 v_eb     = 0 v_ev     = 0 
v_et     = 0 v_ew     = -832.588 v_ep     = 0 
Loop time of 4.19255 on 1 procs for 22970 steps with 192 atoms

Performance: 946.732 ns/day, 0.025 hours/ns, 5478.772 timesteps/s
100.1% CPU use with 1 MPI tasks x no OpenMP threads

MPI task timing breakdown:
Section |  min time  |  avg time  |  max time  |%varavg| %total
---------------------------------------------------------------
Pair    | 3.9301     | 3.9301     | 3.9301     |   0.0 | 93.74
Neigh   | 0          | 0          | 0          |   0.0 |  0.00
Comm    | 0.092483   | 0.092483   | 0.092483   |   0.0 |  2.21
Output  | 0.0018146  | 0.0018146  | 0.0018146  |   0.0 |  0.04
Modify  | 0.13154    | 0.13154    | 0.13154    |   0.0 |  3.14
Other   |            | 0.0366     |            |       |  0.87

Nlocal:    192 ave 192 max 192 min
Histogram: 1 0 0 0 0 0 0 0 0 0
Nghost:    932 ave 932 max 932 min
Histogram: 1 0 0 0 0 0 0 0 0 0
Neighs:    0 ave 0 max 0 min
Histogram: 1 0 0 0 0 0 0 0 0 0
FullNghs:  6528 ave 6528 max 6528 min
Histogram: 1 0 0 0 0 0 0 0 0 0

Total # of neighbors = 6528
Ave neighs/atom = 34
Neighbor list builds = 0
Dangerous builds = 0

#  Releasing fix deform constraint
unfix 1

##  Setting 2fs timesteps
##timestep        dts #2.0  #(in wrapper)
#timestep        ${dts} #2.0
#
##  Running a molecular dynamics simulation for relaxation of applied strain
##  during the same amount of time
##run             nts #2000000  #(in wrapper)
#run             ${nts} #2000000

#  Releasing fix constraints
unfix 3
#unfix 4

#  Stopping dump
#undump            atom_dump

# Sample initial state
#variable nss equal ${nssample0}
#fix   shak all shake 0.001 20 1000 m 1.0
#fix   wholevol all nvt temp ${tempt} ${tempt} 100.0
#include ${locbe}/sample.mod.lammps
#unfix wholevol
#unfix shak

#variable tmp equal f_stress[1]
#variable pp11 equal ${tmp}
#variable tmp equal f_stress[2]
#variable pp22 equal ${tmp}
#variable tmp equal f_stress[3]
#variable pp33 equal ${tmp}
#variable tmp equal f_stress[4]
#variable pp12 equal ${tmp}
#variable tmp equal f_stress[5]
#variable pp13 equal ${tmp}
#variable tmp equal f_stress[6]
#variable pp23 equal ${tmp}
write_restart /home/jinzhen/projects/SCEMa/examples/test1/nanoscale_output/last.7.g0_1.dump
write_restart /home/jinzhen/projects/SCEMa/examples/test1/nanoscale_restart/lcts.7.g0_1.dump
Total wall time: 0:00:04
