LAMMPS (17 Nov 2016)
variable mdt string 0
variable loco string /home/jinzhen/projects/SCEMa/examples/test1/nanoscale_log/tmp/2-1.5.0_1
variable locs string ./lammps_scripts_sisw
variable tempt equal 0.010000
# This file is for a LAMMPS simulation created by James Suter
# The system is polyethane, using the CVFF forcefield
# the simulation will heat up to 500K, cooldown to 200K and then perform unixial stretching in the x direction

##  This script should be just run once at the beginning to provide the initial
##  reference testing box, which will the be evolved using the in.lammps.strain
##  input file.

## Should we optimize the lammps call depending on the computer setup?
## suffix OMP

#  Setting units convention for the rest of the file
units           real            # default

#  Setting variables/attributes associated with each atom: charge, bonds, angles,
#  dihedrals, impropers (full)
atom_style      full

#  Setting the dimension of the simulation
dimension       3               # default

#  Setting boundary types in each dimension (periodic)
boundary        p p p

# Choose potential
pair_style	sw

# Setup neighbor style
neighbor 1.0 nsq
neigh_modify once no every 1 delay 0 check yes
read_restart /home/jinzhen/projects/SCEMa/examples/test1/nanoscale_output/init.g0_1.bin
  triclinic box = (-0.000949778 -0.00142467 -0.00189956) to (10.8609 16.2914 21.7219) with tilt (0 0 0)
  1 by 1 by 1 MPI processor grid
  192 atoms
print 'initially computed'
initially computed
variable ll1 equal lx
variable ll2 equal ly
variable ll3 equal lz
variable dts equal 0.002000
variable nts equal 24500
variable ceeps_00 equal -8.133197e-05
variable ceeps_01 equal 2.310805e-07
variable ceeps_02 equal -1.070005e-05
variable ceeps_11 equal -4.854201e-05
variable ceeps_12 equal 7.599832e-06
variable ceeps_22 equal 2.609170e-05
# This file is for a LAMMPS simulation created by James Suter
# The system is polyethane, using the CVFF forcefield
# the simulation will heat up to 500K, cooldown to 200K and then perform unixial stretching in the x direction

## Should we optimize the lammps call depending on the computer setup?
## suffix OMP

pair_coeff * * ${locs}/Si.sw Si
pair_coeff * * ./lammps_scripts_sisw/Si.sw Si
Reading potential file ./lammps_scripts_sisw/Si.sw with DATE: 2007-06-11

variable eb      equal "ebond"
variable ea      equal "epair"
variable ev      equal "eangle"
variable et      equal "edihed"
variable ew      equal "evdwl"
variable ep      equal "ecoul"


##  -------------------------------------------
#   Calculate the stress-strain curve for uniaxial extension in the x direction

#  Setting to display thermodynamical information on the system every 500 steps
thermo          500

#  Setting the type of thermodynamical information to be printed: T, P, energies, dimesions, V, stress tensor
thermo_style    custom step cpu temp press pe ke evdwl ecoul epair ebond eangle edihed lx ly lz vol pxx pyy pzz pxy pxz pyz v_eb v_ev v_et v_ew v_ep

#  Setting the syntax of the printed thermodynamical information
thermo_modify   flush yes line multi format float %g format 3 %15.8g

#  Setting printing position information on all atoms every 5000 steps PE_stress_strain_x.xyz
#  file specifying atom type 1, 2 and 3 with names respectively C, C and H  (identical as
#  previous with different file name)
#dump            atom_dump all atom ${ndump} ${loco}/${mdt}_straining.atom
#dump            xyz_dump all xyz 5000    ${loco}/${mdt}_stress_strain_x.xyz
#dump_modify     xyz_dump element  C C H

#  Printing evolution of stress for comparison
variable pt equal "step"
variable pp equal "press"
variable p0 equal "pxx"
variable p1 equal "pyy"
variable p2 equal "pzz"
variable p10 equal "pxy"
variable p11 equal "pxz"
variable p12 equal "pyz"
variable p3 equal "pe"
variable p4 equal "ke"
variable p5 equal "temp"
variable p6 equal "lx"
variable p7 equal "ly"
variable p8 equal "lz"
variable p9 equal "vol"
variable evdwl equal "evdwl"
variable ecoul equal "ecoul"
variable eatom equal "epair"
variable ebond equal "ebond"
variable eangle equal "eangle"
variable edihed equal "edihed"

#  Storing initial dimensions of the box
variable lx1 equal ${p6}
variable lx1 equal 10.8618995568104
variable ly1 equal ${p7}
variable ly1 equal 16.2928493352156
variable lz1 equal ${p8}
variable lz1 equal 21.7237991136209

#  Compute current stress using sampling over time and fixed NVT conditions
#fix 1e all print 1 "${pt} ${pp} ${p0} ${p1} ${p2} ${p10} ${p11} ${p12} ${p3} ${p4} ${p5} ${p6} ${p7} ${p8} ${p9} ${evdwl} ${ecoul} ${eatom} ${ebond} ${eangle} ${edihed}" file ${loco}/${mdt}_strain_press_evol.dat screen no

#  Setting a Verlet time solution algorithm/integrator
run_style       verlet

#  Loading the same fix 4 as in the init.lammps set of commands.
#fix             4  all shake 0.001 20 1000 m 1.0  # SHAKE to keep bond distances / angles involving H-atoms fixe

#  Setting a global constraint of canonical ensemble on all atoms, the temperature is set constant at 200k
#  with a relaxation time of 100fs
#  > Is this done right, namely sufficiently constrained? Volume is later controlled by the fix deform
#  on all the components of the strain tensor...
#fix             3 all nvt temp 200.0 200.0 100
#fix             3 all langevin 200.0 200.0 100.0 699483
#fix             3 all nvt/sllod temp ${tempt} ${tempt} 100.0
fix             3 all nvt temp ${tempt} ${tempt} 100.0
fix             3 all nvt temp 0.01 ${tempt} 100.0
fix             3 all nvt temp 0.01 0.01 100.0

# Note: these computes are present by default in any input script when using thermo command
#compute thermo_press all temp
#compute thermo_press all pressure thermo_temp

#  Setting a strain constraint every 1 steps in the x-direction on the box at a strain rate of 1e-7 fs-1, position of
#  all atoms positions are remapped following an affine transformation, namely proportional to the box deformation.
##  Is it pertinent to remap the coordinates proportionaly to the applied
##  strains? Should we remap velocities? Or none?
##  This command might be moved to the C++ wrapper file (as well as all the
##  commands that can not be set before, probably just the run command, and
##  maybe timestep for practicality).
#print "${eeps_00} ${eeps_11} ${eeps_22} ${eeps_01} ${eeps_02} ${eeps_12}"
fix             1 all deform 1  x erate ${ceeps_00}                                 y erate ${ceeps_11}                                 z erate ${ceeps_22}                                xy erate ${ceeps_01}                                xz erate ${ceeps_02}                                yz erate ${ceeps_12}                                remap x
fix             1 all deform 1  x erate -8.133197e-05                                 y erate ${ceeps_11}                                 z erate ${ceeps_22}                                xy erate ${ceeps_01}                                xz erate ${ceeps_02}                                yz erate ${ceeps_12}                                remap x
fix             1 all deform 1  x erate -8.133197e-05                                 y erate -4.854201e-05                                 z erate ${ceeps_22}                                xy erate ${ceeps_01}                                xz erate ${ceeps_02}                                yz erate ${ceeps_12}                                remap x
fix             1 all deform 1  x erate -8.133197e-05                                 y erate -4.854201e-05                                 z erate 2.60917e-05                                xy erate ${ceeps_01}                                xz erate ${ceeps_02}                                yz erate ${ceeps_12}                                remap x
fix             1 all deform 1  x erate -8.133197e-05                                 y erate -4.854201e-05                                 z erate 2.60917e-05                                xy erate 2.310805e-07                                xz erate ${ceeps_02}                                yz erate ${ceeps_12}                                remap x
fix             1 all deform 1  x erate -8.133197e-05                                 y erate -4.854201e-05                                 z erate 2.60917e-05                                xy erate 2.310805e-07                                xz erate -1.070005e-05                                yz erate ${ceeps_12}                                remap x
fix             1 all deform 1  x erate -8.133197e-05                                 y erate -4.854201e-05                                 z erate 2.60917e-05                                xy erate 2.310805e-07                                xz erate -1.070005e-05                                yz erate 7.599832e-06                                remap x

#  Setting 2fs timesteps
#timestep        dts #2.0  #(in wrapper)
timestep        ${dts} #2.0
timestep        0.002 

#  Running a molecular dynamics simulation for 2000000 timesteps
#run             nts #2000000  #(in wrapper)
run             ${nts} #2000000
run             24500 
Neighbor list info ...
  1 neighbor list requests
  update every 1 steps, delay 0 steps, check yes
  max neighbors/atom: 2000, page size: 100000
  master list distance cutoff = 5.77118
  ghost atom cutoff = 5.77118
Memory usage per processor = 2.32678 Mbytes
---------------- Step        4 ----- CPU =      0.0000 (sec) ----------------
Step     =              4 CPU      = 0 Temp     =               0 
Press    = 6.34165e-05 PotEng   = -832.627 KinEng   = 0 
E_vdwl   = -832.627 E_coul   = 0 E_pair   = -832.627 
E_bond   = 0 E_angle  = 0 E_dihed  = 0 
Lx       = 10.8619 Ly       = 16.2928 Lz       = 21.7238 
Volume   = 3844.49 Pxx      = 6.68711e-05 Pyy      = 6.04409e-05 
Pzz      = 6.29375e-05 Pxy      = 1.66606 Pxz      = -0.0760888 
Pyz      = 0.43727 v_eb     = 0 v_ev     = 0 
v_et     = 0 v_ew     = -832.627 v_ep     = 0 
---------------- Step      500 ----- CPU =      0.0917 (sec) ----------------
Step     =            500 CPU      = 0.0916972 Temp     =   3.5658168e-06 
Press    = 104.225 PotEng   = -832.627 KinEng   = 8.80353e-08 
E_vdwl   = -832.627 E_coul   = 0 E_pair   = -832.627 
E_bond   = 0 E_angle  = 0 E_dihed  = 0 
Lx       = 10.861 Ly       = 16.2921 Lz       = 21.7244 
Volume   = 3844.09 Pxx      = 138.931 Pyy      = 114.586 
Pzz      = 59.1589 Pxy      = -0.276199 Pxz      = 5.93826 
Pyz      = -4.25132 v_eb     = 0 v_ev     = 0 
v_et     = 0 v_ew     = -832.627 v_ep     = 0 
---------------- Step     1000 ----- CPU =      0.1829 (sec) ----------------
Step     =           1000 CPU      = 0.182887 Temp     =   2.9475831e-06 
Press    = 209.541 PotEng   = -832.627 KinEng   = 7.2772e-08 
E_vdwl   = -832.627 E_coul   = 0 E_pair   = -832.627 
E_bond   = 0 E_angle  = 0 E_dihed  = 0 
Lx       = 10.8601 Ly       = 16.2913 Lz       = 21.7249 
Volume   = 3843.69 Pxx      = 279.307 Pyy      = 230.375 
Pzz      = 118.942 Pxy      = -1.50252 Pxz      = 12.0538 
Pyz      = -8.84608 v_eb     = 0 v_ev     = 0 
v_et     = 0 v_ew     = -832.627 v_ep     = 0 
---------------- Step     1500 ----- CPU =      0.2759 (sec) ----------------
Step     =           1500 CPU      = 0.275899 Temp     =   3.0391436e-06 
Press    = 314.896 PotEng   = -832.627 KinEng   = 7.50325e-08 
E_vdwl   = -832.627 E_coul   = 0 E_pair   = -832.627 
E_bond   = 0 E_angle  = 0 E_dihed  = 0 
Lx       = 10.8593 Ly       = 16.2905 Lz       = 21.7255 
Volume   = 3843.3 Pxx      = 419.725 Pyy      = 346.211 
Pzz      = 178.751 Pxy      = -2.05701 Pxz      = 18.1526 
Pyz      = -13.276 v_eb     = 0 v_ev     = 0 
v_et     = 0 v_ew     = -832.627 v_ep     = 0 
---------------- Step     2000 ----- CPU =      0.3671 (sec) ----------------
Step     =           2000 CPU      = 0.367095 Temp     =   3.6957172e-06 
Press    = 420.288 PotEng   = -832.627 KinEng   = 9.12424e-08 
E_vdwl   = -832.627 E_coul   = 0 E_pair   = -832.627 
E_bond   = 0 E_angle  = 0 E_dihed  = 0 
Lx       = 10.8584 Ly       = 16.2897 Lz       = 21.7261 
Volume   = 3842.9 Pxx      = 560.184 Pyy      = 462.093 
Pzz      = 238.588 Pxy      = -1.73672 Pxz      = 24.2059 
Pyz      = -17.4757 v_eb     = 0 v_ev     = 0 
v_et     = 0 v_ew     = -832.627 v_ep     = 0 
---------------- Step     2500 ----- CPU =      0.4577 (sec) ----------------
Step     =           2500 CPU      = 0.457666 Temp     =   3.9116391e-06 
Press    = 525.719 PotEng   = -832.627 KinEng   = 9.65732e-08 
E_vdwl   = -832.627 E_coul   = 0 E_pair   = -832.627 
E_bond   = 0 E_angle  = 0 E_dihed  = 0 
Lx       = 10.8575 Ly       = 16.2889 Lz       = 21.7266 
Volume   = 3842.5 Pxx      = 700.686 Pyy      = 578.022 
Pzz      = 298.451 Pxy      = -0.796924 Pxz      = 30.2104 
Pyz      = -21.4998 v_eb     = 0 v_ev     = 0 
v_et     = 0 v_ew     = -832.627 v_ep     = 0 
---------------- Step     3000 ----- CPU =      0.5491 (sec) ----------------
Step     =           3000 CPU      = 0.549139 Temp     =   3.6900366e-06 
Press    = 631.189 PotEng   = -832.627 KinEng   = 9.11022e-08 
E_vdwl   = -832.627 E_coul   = 0 E_pair   = -832.627 
E_bond   = 0 E_angle  = 0 E_dihed  = 0 
Lx       = 10.8566 Ly       = 16.2881 Lz       = 21.7272 
Volume   = 3842.1 Pxx      = 841.229 Pyy      = 693.997 
Pzz      = 358.34 Pxy      = 0.208478 Pxz      = 36.1879 
Pyz      = -25.4858 v_eb     = 0 v_ev     = 0 
v_et     = 0 v_ew     = -832.627 v_ep     = 0 
---------------- Step     3500 ----- CPU =      0.6395 (sec) ----------------
Step     =           3500 CPU      = 0.639466 Temp     =   3.5627631e-06 
Press    = 736.697 PotEng   = -832.626 KinEng   = 8.79599e-08 
E_vdwl   = -832.626 E_coul   = 0 E_pair   = -832.626 
E_bond   = 0 E_angle  = 0 E_dihed  = 0 
Lx       = 10.8557 Ly       = 16.2873 Lz       = 21.7278 
Volume   = 3841.7 Pxx      = 981.814 Pyy      = 810.019 
Pzz      = 418.257 Pxy      = 0.720552 Pxz      = 42.1728 
Pyz      = -29.5814 v_eb     = 0 v_ev     = 0 
v_et     = 0 v_ew     = -832.626 v_ep     = 0 
---------------- Step     4000 ----- CPU =      0.7301 (sec) ----------------
Step     =           4000 CPU      = 0.730142 Temp     =   3.2015055e-06 
Press    = 842.243 PotEng   = -832.626 KinEng   = 7.9041e-08 
E_vdwl   = -832.626 E_coul   = 0 E_pair   = -832.626 
E_bond   = 0 E_angle  = 0 E_dihed  = 0 
Lx       = 10.8548 Ly       = 16.2865 Lz       = 21.7283 
Volume   = 3841.3 Pxx      = 1122.44 Pyy      = 926.087 
Pzz      = 478.2 Pxy      = 0.445497 Pxz      = 48.1944 
Pyz      = -33.8745 v_eb     = 0 v_ev     = 0 
v_et     = 0 v_ew     = -832.626 v_ep     = 0 
---------------- Step     4500 ----- CPU =      0.8214 (sec) ----------------
Step     =           4500 CPU      = 0.821399 Temp     =   3.5396426e-06 
Press    = 947.828 PotEng   = -832.626 KinEng   = 8.73891e-08 
E_vdwl   = -832.626 E_coul   = 0 E_pair   = -832.626 
E_bond   = 0 E_angle  = 0 E_dihed  = 0 
Lx       = 10.854 Ly       = 16.2857 Lz       = 21.7289 
Volume   = 3840.9 Pxx      = 1263.11 Pyy      = 1042.2 
Pzz      = 538.17 Pxy      = -0.525043 Pxz      = 54.2634 
Pyz      = -38.3581 v_eb     = 0 v_ev     = 0 
v_et     = 0 v_ew     = -832.626 v_ep     = 0 
---------------- Step     5000 ----- CPU =      0.9118 (sec) ----------------
Step     =           5000 CPU      = 0.911811 Temp     =   3.5432293e-06 
Press    = 1053.45 PotEng   = -832.625 KinEng   = 8.74777e-08 
E_vdwl   = -832.625 E_coul   = 0 E_pair   = -832.625 
E_bond   = 0 E_angle  = 0 E_dihed  = 0 
Lx       = 10.8531 Ly       = 16.2849 Lz       = 21.7295 
Volume   = 3840.5 Pxx      = 1403.82 Pyy      = 1158.36 
Pzz      = 598.167 Pxy      = -1.78362 Pxz      = 60.3686 
Pyz      = -42.9422 v_eb     = 0 v_ev     = 0 
v_et     = 0 v_ew     = -832.625 v_ep     = 0 
---------------- Step     5500 ----- CPU =      1.0025 (sec) ----------------
Step     =           5500 CPU      = 1.00246 Temp     =   3.5758322e-06 
Press    = 1159.11 PotEng   = -832.625 KinEng   = 8.82826e-08 
E_vdwl   = -832.625 E_coul   = 0 E_pair   = -832.625 
E_bond   = 0 E_angle  = 0 E_dihed  = 0 
Lx       = 10.8522 Ly       = 16.2842 Lz       = 21.73 
Volume   = 3840.1 Pxx      = 1544.57 Pyy      = 1274.57 
Pzz      = 658.191 Pxy      = -2.8138 Pxz      = 66.4839 
Pyz      = -47.5001 v_eb     = 0 v_ev     = 0 
v_et     = 0 v_ew     = -832.625 v_ep     = 0 
---------------- Step     6000 ----- CPU =      1.0928 (sec) ----------------
Step     =           6000 CPU      = 1.09284 Temp     =   2.8760186e-06 
Press    = 1264.81 PotEng   = -832.625 KinEng   = 7.10051e-08 
E_vdwl   = -832.625 E_coul   = 0 E_pair   = -832.625 
E_bond   = 0 E_angle  = 0 E_dihed  = 0 
Lx       = 10.8513 Ly       = 16.2834 Lz       = 21.7306 
Volume   = 3839.7 Pxx      = 1685.37 Pyy      = 1390.82 
Pzz      = 718.241 Pxy      = -3.22644 Pxz      = 72.5808 
Pyz      = -51.9245 v_eb     = 0 v_ev     = 0 
v_et     = 0 v_ew     = -832.625 v_ep     = 0 
---------------- Step     6500 ----- CPU =      1.1830 (sec) ----------------
Step     =           6500 CPU      = 1.18303 Temp     =   3.1234278e-06 
Press    = 1370.55 PotEng   = -832.624 KinEng   = 7.71133e-08 
E_vdwl   = -832.624 E_coul   = 0 E_pair   = -832.624 
E_bond   = 0 E_angle  = 0 E_dihed  = 0 
Lx       = 10.8504 Ly       = 16.2826 Lz       = 21.7312 
Volume   = 3839.31 Pxx      = 1826.21 Pyy      = 1507.13 
Pzz      = 778.318 Pxy      = -2.91853 Pxz      = 78.6413 
Pyz      = -56.1699 v_eb     = 0 v_ev     = 0 
v_et     = 0 v_ew     = -832.624 v_ep     = 0 
---------------- Step     7000 ----- CPU =      1.2735 (sec) ----------------
Step     =           7000 CPU      = 1.27349 Temp     =   3.7733014e-06 
Press    = 1476.33 PotEng   = -832.624 KinEng   = 9.31579e-08 
E_vdwl   = -832.624 E_coul   = 0 E_pair   = -832.624 
E_bond   = 0 E_angle  = 0 E_dihed  = 0 
Lx       = 10.8495 Ly       = 16.2818 Lz       = 21.7317 
Volume   = 3838.91 Pxx      = 1967.09 Pyy      = 1623.47 
Pzz      = 838.423 Pxy      = -2.09568 Pxz      = 84.664 
Pyz      = -60.2642 v_eb     = 0 v_ev     = 0 
v_et     = 0 v_ew     = -832.624 v_ep     = 0 
---------------- Step     7500 ----- CPU =      1.3647 (sec) ----------------
Step     =           7500 CPU      = 1.36473 Temp     =   3.5817126e-06 
Press    = 1582.14 PotEng   = -832.623 KinEng   = 8.84278e-08 
E_vdwl   = -832.623 E_coul   = 0 E_pair   = -832.623 
E_bond   = 0 E_angle  = 0 E_dihed  = 0 
Lx       = 10.8487 Ly       = 16.281 Lz       = 21.7323 
Volume   = 3838.51 Pxx      = 2108.01 Pyy      = 1739.87 
Pzz      = 898.554 Pxy      = -1.16406 Pxz      = 90.6636 
Pyz      = -64.2912 v_eb     = 0 v_ev     = 0 
v_et     = 0 v_ew     = -832.623 v_ep     = 0 
---------------- Step     8000 ----- CPU =      1.4551 (sec) ----------------
Step     =           8000 CPU      = 1.45509 Temp     =   3.6510458e-06 
Press    = 1688 PotEng   = -832.622 KinEng   = 9.01395e-08 
E_vdwl   = -832.622 E_coul   = 0 E_pair   = -832.622 
E_bond   = 0 E_angle  = 0 E_dihed  = 0 
Lx       = 10.8478 Ly       = 16.2802 Lz       = 21.7329 
Volume   = 3838.11 Pxx      = 2248.97 Pyy      = 1856.31 
Pzz      = 958.711 Pxy      = -0.551468 Pxz      = 96.6632 
Pyz      = -68.3536 v_eb     = 0 v_ev     = 0 
v_et     = 0 v_ew     = -832.622 v_ep     = 0 
---------------- Step     8500 ----- CPU =      1.5454 (sec) ----------------
Step     =           8500 CPU      = 1.54544 Temp     =   3.8880186e-06 
Press    = 1793.89 PotEng   = -832.622 KinEng   = 9.59901e-08 
E_vdwl   = -832.622 E_coul   = 0 E_pair   = -832.622 
E_bond   = 0 E_angle  = 0 E_dihed  = 0 
Lx       = 10.8469 Ly       = 16.2794 Lz       = 21.7334 
Volume   = 3837.71 Pxx      = 2389.97 Pyy      = 1972.8 
Pzz      = 1018.9 Pxy      = -0.537214 Pxz      = 102.684 
Pyz      = -72.5342 v_eb     = 0 v_ev     = 0 
v_et     = 0 v_ew     = -832.622 v_ep     = 0 
---------------- Step     9000 ----- CPU =      1.6360 (sec) ----------------
Step     =           9000 CPU      = 1.63602 Temp     =   3.3067346e-06 
Press    = 1899.82 PotEng   = -832.621 KinEng   = 8.16389e-08 
E_vdwl   = -832.621 E_coul   = 0 E_pair   = -832.621 
E_bond   = 0 E_angle  = 0 E_dihed  = 0 
Lx       = 10.846 Ly       = 16.2786 Lz       = 21.734 
Volume   = 3837.31 Pxx      = 2531.02 Pyy      = 2089.33 
Pzz      = 1079.11 Pxy      = -1.15621 Pxz      = 108.74 
Pyz      = -76.8683 v_eb     = 0 v_ev     = 0 
v_et     = 0 v_ew     = -832.621 v_ep     = 0 
---------------- Step     9500 ----- CPU =      1.7269 (sec) ----------------
Step     =           9500 CPU      = 1.72692 Temp     =   3.2528772e-06 
Press    = 2005.79 PotEng   = -832.62 KinEng   = 8.03093e-08 
E_vdwl   = -832.62 E_coul   = 0 E_pair   = -832.62 
E_bond   = 0 E_angle  = 0 E_dihed  = 0 
Lx       = 10.8451 Ly       = 16.2778 Lz       = 21.7346 
Volume   = 3836.91 Pxx      = 2672.11 Pyy      = 2205.91 
Pzz      = 1139.35 Pxy      = -2.20508 Pxz      = 114.827 
Pyz      = -81.3372 v_eb     = 0 v_ev     = 0 
v_et     = 0 v_ew     = -832.62 v_ep     = 0 
---------------- Step    10000 ----- CPU =      1.8259 (sec) ----------------
Step     =          10000 CPU      = 1.82589 Temp     =   3.9302318e-06 
Press    = 2111.8 PotEng   = -832.62 KinEng   = 9.70323e-08 
E_vdwl   = -832.62 E_coul   = 0 E_pair   = -832.62 
E_bond   = 0 E_angle  = 0 E_dihed  = 0 
Lx       = 10.8442 Ly       = 16.277 Lz       = 21.7351 
Volume   = 3836.51 Pxx      = 2813.24 Pyy      = 2322.54 
Pzz      = 1199.61 Pxy      = -3.3355 Pxz      = 120.936 
Pyz      = -85.8798 v_eb     = 0 v_ev     = 0 
v_et     = 0 v_ew     = -832.62 v_ep     = 0 
---------------- Step    10500 ----- CPU =      1.9163 (sec) ----------------
Step     =          10500 CPU      = 1.91627 Temp     =   3.1805704e-06 
Press    = 2217.84 PotEng   = -832.619 KinEng   = 7.85241e-08 
E_vdwl   = -832.619 E_coul   = 0 E_pair   = -832.619 
E_bond   = 0 E_angle  = 0 E_dihed  = 0 
Lx       = 10.8434 Ly       = 16.2762 Lz       = 21.7357 
Volume   = 3836.11 Pxx      = 2954.41 Pyy      = 2439.21 
Pzz      = 1259.9 Pxy      = -4.19014 Pxz      = 127.047 
Pyz      = -90.417 v_eb     = 0 v_ev     = 0 
v_et     = 0 v_ew     = -832.619 v_ep     = 0 
---------------- Step    11000 ----- CPU =      2.0076 (sec) ----------------
Step     =          11000 CPU      = 2.0076 Temp     =   3.3389266e-06 
Press    = 2323.93 PotEng   = -832.618 KinEng   = 8.24337e-08 
E_vdwl   = -832.618 E_coul   = 0 E_pair   = -832.618 
E_bond   = 0 E_angle  = 0 E_dihed  = 0 
Lx       = 10.8425 Ly       = 16.2755 Lz       = 21.7363 
Volume   = 3835.72 Pxx      = 3095.63 Pyy      = 2555.94 
Pzz      = 1320.22 Pxy      = -4.52781 Pxz      = 133.143 
Pyz      = -94.8783 v_eb     = 0 v_ev     = 0 
v_et     = 0 v_ew     = -832.618 v_ep     = 0 
---------------- Step    11500 ----- CPU =      2.0984 (sec) ----------------
Step     =          11500 CPU      = 2.09845 Temp     =   3.2984847e-06 
Press    = 2430.05 PotEng   = -832.617 KinEng   = 8.14353e-08 
E_vdwl   = -832.617 E_coul   = 0 E_pair   = -832.617 
E_bond   = 0 E_angle  = 0 E_dihed  = 0 
Lx       = 10.8416 Ly       = 16.2747 Lz       = 21.7368 
Volume   = 3835.32 Pxx      = 3236.89 Pyy      = 2672.7 
Pzz      = 1380.57 Pxy      = -4.29574 Pxz      = 139.215 
Pyz      = -99.222 v_eb     = 0 v_ev     = 0 
v_et     = 0 v_ew     = -832.617 v_ep     = 0 
---------------- Step    12000 ----- CPU =      2.1888 (sec) ----------------
Step     =          12000 CPU      = 2.18882 Temp     =   3.8183748e-06 
Press    = 2536.22 PotEng   = -832.616 KinEng   = 9.42707e-08 
E_vdwl   = -832.616 E_coul   = 0 E_pair   = -832.616 
E_bond   = 0 E_angle  = 0 E_dihed  = 0 
Lx       = 10.8407 Ly       = 16.2739 Lz       = 21.7374 
Volume   = 3834.92 Pxx      = 3378.18 Pyy      = 2789.52 
Pzz      = 1440.94 Pxy      = -3.63118 Pxz      = 145.261 
Pyz      = -103.444 v_eb     = 0 v_ev     = 0 
v_et     = 0 v_ew     = -832.616 v_ep     = 0 
---------------- Step    12500 ----- CPU =      2.2792 (sec) ----------------
Step     =          12500 CPU      = 2.27924 Temp     =    3.400839e-06 
Press    = 2642.42 PotEng   = -832.616 KinEng   = 8.39623e-08 
E_vdwl   = -832.616 E_coul   = 0 E_pair   = -832.616 
E_bond   = 0 E_angle  = 0 E_dihed  = 0 
Lx       = 10.8398 Ly       = 16.2731 Lz       = 21.738 
Volume   = 3834.52 Pxx      = 3519.53 Pyy      = 2906.38 
Pzz      = 1501.34 Pxy      = -2.80121 Pxz      = 151.289 
Pyz      = -107.573 v_eb     = 0 v_ev     = 0 
v_et     = 0 v_ew     = -832.616 v_ep     = 0 
---------------- Step    13000 ----- CPU =      2.3701 (sec) ----------------
Step     =          13000 CPU      = 2.37012 Temp     =   3.5090748e-06 
Press    = 2748.66 PotEng   = -832.615 KinEng   = 8.66345e-08 
E_vdwl   = -832.615 E_coul   = 0 E_pair   = -832.615 
E_bond   = 0 E_angle  = 0 E_dihed  = 0 
Lx       = 10.8389 Ly       = 16.2723 Lz       = 21.7385 
Volume   = 3834.12 Pxx      = 3660.91 Pyy      = 3023.29 
Pzz      = 1561.77 Pxy      = -2.10793 Pxz      = 157.312 
Pyz      = -111.662 v_eb     = 0 v_ev     = 0 
v_et     = 0 v_ew     = -832.615 v_ep     = 0 
---------------- Step    13500 ----- CPU =      2.4611 (sec) ----------------
Step     =          13500 CPU      = 2.46109 Temp     =   3.1239077e-06 
Press    = 2854.93 PotEng   = -832.614 KinEng   = 7.71252e-08 
E_vdwl   = -832.614 E_coul   = 0 E_pair   = -832.614 
E_bond   = 0 E_angle  = 0 E_dihed  = 0 
Lx       = 10.8381 Ly       = 16.2715 Lz       = 21.7391 
Volume   = 3833.72 Pxx      = 3802.33 Pyy      = 3140.24 
Pzz      = 1622.23 Pxy      = -1.79323 Pxz      = 163.343 
Pyz      = -115.768 v_eb     = 0 v_ev     = 0 
v_et     = 0 v_ew     = -832.614 v_ep     = 0 
---------------- Step    14000 ----- CPU =      2.5515 (sec) ----------------
Step     =          14000 CPU      = 2.55148 Temp     =   3.2761867e-06 
Press    = 2961.25 PotEng   = -832.613 KinEng   = 8.08847e-08 
E_vdwl   = -832.613 E_coul   = 0 E_pair   = -832.613 
E_bond   = 0 E_angle  = 0 E_dihed  = 0 
Lx       = 10.8372 Ly       = 16.2707 Lz       = 21.7397 
Volume   = 3833.32 Pxx      = 3943.8 Pyy      = 3257.25 
Pzz      = 1682.71 Pxy      = -1.9723 Pxz      = 169.392 
Pyz      = -119.937 v_eb     = 0 v_ev     = 0 
v_et     = 0 v_ew     = -832.613 v_ep     = 0 
---------------- Step    14500 ----- CPU =      2.6419 (sec) ----------------
Step     =          14500 CPU      = 2.64187 Temp     =   3.6314733e-06 
Press    = 3067.61 PotEng   = -832.611 KinEng   = 8.96563e-08 
E_vdwl   = -832.611 E_coul   = 0 E_pair   = -832.611 
E_bond   = 0 E_angle  = 0 E_dihed  = 0 
Lx       = 10.8363 Ly       = 16.2699 Lz       = 21.7402 
Volume   = 3832.92 Pxx      = 4085.31 Pyy      = 3374.3 
Pzz      = 1743.22 Pxy      = -2.61178 Pxz      = 175.464 
Pyz      = -124.197 v_eb     = 0 v_ev     = 0 
v_et     = 0 v_ew     = -832.611 v_ep     = 0 
---------------- Step    15000 ----- CPU =      2.7453 (sec) ----------------
Step     =          15000 CPU      = 2.74535 Temp     =    3.607012e-06 
Press    = 3174 PotEng   = -832.61 KinEng   = 8.90524e-08 
E_vdwl   = -832.61 E_coul   = 0 E_pair   = -832.61 
E_bond   = 0 E_angle  = 0 E_dihed  = 0 
Lx       = 10.8354 Ly       = 16.2691 Lz       = 21.7408 
Volume   = 3832.52 Pxx      = 4226.86 Pyy      = 3491.39 
Pzz      = 1803.75 Pxy      = -3.55255 Pxz      = 181.554 
Pyz      = -128.551 v_eb     = 0 v_ev     = 0 
v_et     = 0 v_ew     = -832.61 v_ep     = 0 
---------------- Step    15500 ----- CPU =      2.8466 (sec) ----------------
Step     =          15500 CPU      = 2.84658 Temp     =   3.6966658e-06 
Press    = 3280.44 PotEng   = -832.609 KinEng   = 9.12658e-08 
E_vdwl   = -832.609 E_coul   = 0 E_pair   = -832.609 
E_bond   = 0 E_angle  = 0 E_dihed  = 0 
Lx       = 10.8345 Ly       = 16.2683 Lz       = 21.7414 
Volume   = 3832.13 Pxx      = 4368.46 Pyy      = 3608.54 
Pzz      = 1864.32 Pxy      = -4.56472 Pxz      = 187.657 
Pyz      = -132.982 v_eb     = 0 v_ev     = 0 
v_et     = 0 v_ew     = -832.609 v_ep     = 0 
---------------- Step    16000 ----- CPU =      2.9369 (sec) ----------------
Step     =          16000 CPU      = 2.93687 Temp     =     3.04035e-06 
Press    = 3386.91 PotEng   = -832.608 KinEng   = 7.50623e-08 
E_vdwl   = -832.608 E_coul   = 0 E_pair   = -832.608 
E_bond   = 0 E_angle  = 0 E_dihed  = 0 
Lx       = 10.8336 Ly       = 16.2675 Lz       = 21.7419 
Volume   = 3831.73 Pxx      = 4510.09 Pyy      = 3725.73 
Pzz      = 1924.91 Pxy      = -5.41511 Pxz      = 193.763 
Pyz      = -137.458 v_eb     = 0 v_ev     = 0 
v_et     = 0 v_ew     = -832.608 v_ep     = 0 
---------------- Step    16500 ----- CPU =      3.0275 (sec) ----------------
Step     =          16500 CPU      = 3.02748 Temp     =   3.4298674e-06 
Press    = 3493.42 PotEng   = -832.607 KinEng   = 8.46789e-08 
E_vdwl   = -832.607 E_coul   = 0 E_pair   = -832.607 
E_bond   = 0 E_angle  = 0 E_dihed  = 0 
Lx       = 10.8328 Ly       = 16.2668 Lz       = 21.7425 
Volume   = 3831.33 Pxx      = 4651.77 Pyy      = 3842.96 
Pzz      = 1985.52 Pxy      = -5.9275 Pxz      = 199.862 
Pyz      = -141.942 v_eb     = 0 v_ev     = 0 
v_et     = 0 v_ew     = -832.607 v_ep     = 0 
---------------- Step    17000 ----- CPU =      3.1178 (sec) ----------------
Step     =          17000 CPU      = 3.1178 Temp     =   3.4399257e-06 
Press    = 3599.97 PotEng   = -832.606 KinEng   = 8.49273e-08 
E_vdwl   = -832.606 E_coul   = 0 E_pair   = -832.606 
E_bond   = 0 E_angle  = 0 E_dihed  = 0 
Lx       = 10.8319 Ly       = 16.266 Lz       = 21.7431 
Volume   = 3830.93 Pxx      = 4793.49 Pyy      = 3960.25 
Pzz      = 2046.17 Pxy      = -6.02115 Pxz      = 205.949 
Pyz      = -146.401 v_eb     = 0 v_ev     = 0 
v_et     = 0 v_ew     = -832.606 v_ep     = 0 
---------------- Step    17500 ----- CPU =      3.2094 (sec) ----------------
Step     =          17500 CPU      = 3.20943 Temp     =   2.8664439e-06 
Press    = 3706.56 PotEng   = -832.604 KinEng   = 7.07687e-08 
E_vdwl   = -832.604 E_coul   = 0 E_pair   = -832.604 
E_bond   = 0 E_angle  = 0 E_dihed  = 0 
Lx       = 10.831 Ly       = 16.2652 Lz       = 21.7436 
Volume   = 3830.53 Pxx      = 4935.25 Pyy      = 4077.58 
Pzz      = 2106.84 Pxy      = -5.72099 Pxz      = 212.021 
Pyz      = -150.811 v_eb     = 0 v_ev     = 0 
v_et     = 0 v_ew     = -832.604 v_ep     = 0 
---------------- Step    18000 ----- CPU =      3.3005 (sec) ----------------
Step     =          18000 CPU      = 3.30048 Temp     =   4.1382095e-06 
Press    = 3813.18 PotEng   = -832.603 KinEng   = 1.02167e-07 
E_vdwl   = -832.603 E_coul   = 0 E_pair   = -832.603 
E_bond   = 0 E_angle  = 0 E_dihed  = 0 
Lx       = 10.8301 Ly       = 16.2644 Lz       = 21.7442 
Volume   = 3830.13 Pxx      = 5077.06 Pyy      = 4194.96 
Pzz      = 2167.54 Pxy      = -5.14119 Pxz      = 218.082 
Pyz      = -155.161 v_eb     = 0 v_ev     = 0 
v_et     = 0 v_ew     = -832.603 v_ep     = 0 
---------------- Step    18500 ----- CPU =      3.3920 (sec) ----------------
Step     =          18500 CPU      = 3.39198 Temp     =   3.7038754e-06 
Press    = 3919.85 PotEng   = -832.602 KinEng   = 9.14438e-08 
E_vdwl   = -832.602 E_coul   = 0 E_pair   = -832.602 
E_bond   = 0 E_angle  = 0 E_dihed  = 0 
Lx       = 10.8292 Ly       = 16.2636 Lz       = 21.7448 
Volume   = 3829.73 Pxx      = 5218.9 Pyy      = 4312.38 
Pzz      = 2228.26 Pxy      = -4.45016 Pxz      = 224.135 
Pyz      = -159.45 v_eb     = 0 v_ev     = 0 
v_et     = 0 v_ew     = -832.602 v_ep     = 0 
---------------- Step    19000 ----- CPU =      3.4824 (sec) ----------------
Step     =          19000 CPU      = 3.48237 Temp     =    3.374131e-06 
Press    = 4026.55 PotEng   = -832.6 KinEng   = 8.33029e-08 
E_vdwl   = -832.6 E_coul   = 0 E_pair   = -832.6 
E_bond   = 0 E_angle  = 0 E_dihed  = 0 
Lx       = 10.8283 Ly       = 16.2628 Lz       = 21.7453 
Volume   = 3829.33 Pxx      = 5360.79 Pyy      = 4429.86 
Pzz      = 2289.02 Pxy      = -3.82785 Pxz      = 230.188 
Pyz      = -163.69 v_eb     = 0 v_ev     = 0 
v_et     = 0 v_ew     = -832.6 v_ep     = 0 
---------------- Step    19500 ----- CPU =      3.5727 (sec) ----------------
Step     =          19500 CPU      = 3.57275 Temp     =   2.9630134e-06 
Press    = 4133.3 PotEng   = -832.599 KinEng   = 7.31529e-08 
E_vdwl   = -832.599 E_coul   = 0 E_pair   = -832.599 
E_bond   = 0 E_angle  = 0 E_dihed  = 0 
Lx       = 10.8275 Ly       = 16.262 Lz       = 21.7459 
Volume   = 3828.93 Pxx      = 5502.72 Pyy      = 4547.38 
Pzz      = 2349.8 Pxy      = -3.4261 Pxz      = 236.246 
Pyz      = -167.898 v_eb     = 0 v_ev     = 0 
v_et     = 0 v_ew     = -832.599 v_ep     = 0 
---------------- Step    20000 ----- CPU =      3.6632 (sec) ----------------
Step     =          20000 CPU      = 3.66324 Temp     =   4.0104349e-06 
Press    = 4240.08 PotEng   = -832.597 KinEng   = 9.90124e-08 
E_vdwl   = -832.597 E_coul   = 0 E_pair   = -832.597 
E_bond   = 0 E_angle  = 0 E_dihed  = 0 
Lx       = 10.8266 Ly       = 16.2612 Lz       = 21.7465 
Volume   = 3828.54 Pxx      = 5644.7 Pyy      = 4664.94 
Pzz      = 2410.6 Pxy      = -3.34026 Pxz      = 242.315 
Pyz      = -172.09 v_eb     = 0 v_ev     = 0 
v_et     = 0 v_ew     = -832.597 v_ep     = 0 
---------------- Step    20500 ----- CPU =      3.7540 (sec) ----------------
Step     =          20500 CPU      = 3.75403 Temp     =   3.9729888e-06 
Press    = 4346.9 PotEng   = -832.596 KinEng   = 9.80879e-08 
E_vdwl   = -832.596 E_coul   = 0 E_pair   = -832.596 
E_bond   = 0 E_angle  = 0 E_dihed  = 0 
Lx       = 10.8257 Ly       = 16.2604 Lz       = 21.747 
Volume   = 3828.14 Pxx      = 5786.71 Pyy      = 4782.56 
Pzz      = 2471.44 Pxy      = -3.59626 Pxz      = 248.395 
Pyz      = -176.286 v_eb     = 0 v_ev     = 0 
v_et     = 0 v_ew     = -832.596 v_ep     = 0 
---------------- Step    21000 ----- CPU =      3.8444 (sec) ----------------
Step     =          21000 CPU      = 3.84439 Temp     =   3.8745799e-06 
Press    = 4453.76 PotEng   = -832.594 KinEng   = 9.56583e-08 
E_vdwl   = -832.594 E_coul   = 0 E_pair   = -832.594 
E_bond   = 0 E_angle  = 0 E_dihed  = 0 
Lx       = 10.8248 Ly       = 16.2596 Lz       = 21.7476 
Volume   = 3827.74 Pxx      = 5928.77 Pyy      = 4900.22 
Pzz      = 2532.3 Pxy      = -4.15326 Pxz      = 254.487 
Pyz      = -180.498 v_eb     = 0 v_ev     = 0 
v_et     = 0 v_ew     = -832.594 v_ep     = 0 
---------------- Step    21500 ----- CPU =      3.9345 (sec) ----------------
Step     =          21500 CPU      = 3.93447 Temp     =   3.3638772e-06 
Press    = 4560.66 PotEng   = -832.593 KinEng   = 8.30497e-08 
E_vdwl   = -832.593 E_coul   = 0 E_pair   = -832.593 
E_bond   = 0 E_angle  = 0 E_dihed  = 0 
Lx       = 10.8239 Ly       = 16.2588 Lz       = 21.7482 
Volume   = 3827.34 Pxx      = 6070.87 Pyy      = 5017.93 
Pzz      = 2593.19 Pxy      = -4.91884 Pxz      = 260.587 
Pyz      = -184.736 v_eb     = 0 v_ev     = 0 
v_et     = 0 v_ew     = -832.593 v_ep     = 0 
---------------- Step    22000 ----- CPU =      4.0253 (sec) ----------------
Step     =          22000 CPU      = 4.02532 Temp     =   3.7563927e-06 
Press    = 4667.6 PotEng   = -832.591 KinEng   = 9.27404e-08 
E_vdwl   = -832.591 E_coul   = 0 E_pair   = -832.591 
E_bond   = 0 E_angle  = 0 E_dihed  = 0 
Lx       = 10.823 Ly       = 16.2581 Lz       = 21.7487 
Volume   = 3826.94 Pxx      = 6213.01 Pyy      = 5135.68 
Pzz      = 2654.11 Pxy      = -5.77159 Pxz      = 266.692 
Pyz      = -189.004 v_eb     = 0 v_ev     = 0 
v_et     = 0 v_ew     = -832.591 v_ep     = 0 
---------------- Step    22500 ----- CPU =      4.1158 (sec) ----------------
Step     =          22500 CPU      = 4.11585 Temp     =   4.2505135e-06 
Press    = 4774.58 PotEng   = -832.589 KinEng   = 1.0494e-07 
E_vdwl   = -832.589 E_coul   = 0 E_pair   = -832.589 
E_bond   = 0 E_angle  = 0 E_dihed  = 0 
Lx       = 10.8222 Ly       = 16.2573 Lz       = 21.7493 
Volume   = 3826.54 Pxx      = 6355.19 Pyy      = 5253.49 
Pzz      = 2715.05 Pxy      = -6.58566 Pxz      = 272.796 
Pyz      = -193.3 v_eb     = 0 v_ev     = 0 
v_et     = 0 v_ew     = -832.589 v_ep     = 0 
---------------- Step    23000 ----- CPU =      4.2063 (sec) ----------------
Step     =          23000 CPU      = 4.20631 Temp     =   3.6438745e-06 
Press    = 4881.59 PotEng   = -832.588 KinEng   = 8.99625e-08 
E_vdwl   = -832.588 E_coul   = 0 E_pair   = -832.588 
E_bond   = 0 E_angle  = 0 E_dihed  = 0 
Lx       = 10.8213 Ly       = 16.2565 Lz       = 21.7499 
Volume   = 3826.14 Pxx      = 6497.42 Pyy      = 5371.34 
Pzz      = 2776.02 Pxy      = -7.25252 Pxz      = 278.896 
Pyz      = -197.621 v_eb     = 0 v_ev     = 0 
v_et     = 0 v_ew     = -832.588 v_ep     = 0 
---------------- Step    23500 ----- CPU =      4.2967 (sec) ----------------
Step     =          23500 CPU      = 4.29675 Temp     =   3.4306649e-06 
Press    = 4988.65 PotEng   = -832.586 KinEng   = 8.46986e-08 
E_vdwl   = -832.586 E_coul   = 0 E_pair   = -832.586 
E_bond   = 0 E_angle  = 0 E_dihed  = 0 
Lx       = 10.8204 Ly       = 16.2557 Lz       = 21.7504 
Volume   = 3825.74 Pxx      = 6639.69 Pyy      = 5489.23 
Pzz      = 2837.02 Pxy      = -7.69646 Pxz      = 284.99 
Pyz      = -201.963 v_eb     = 0 v_ev     = 0 
v_et     = 0 v_ew     = -832.586 v_ep     = 0 
---------------- Step    24000 ----- CPU =      4.3887 (sec) ----------------
Step     =          24000 CPU      = 4.38875 Temp     =   3.4925869e-06 
Press    = 5095.74 PotEng   = -832.584 KinEng   = 8.62274e-08 
E_vdwl   = -832.584 E_coul   = 0 E_pair   = -832.584 
E_bond   = 0 E_angle  = 0 E_dihed  = 0 
Lx       = 10.8195 Ly       = 16.2549 Lz       = 21.751 
Volume   = 3825.35 Pxx      = 6782 Pyy      = 5607.18 
Pzz      = 2898.05 Pxy      = -7.88244 Pxz      = 291.076 
Pyz      = -206.319 v_eb     = 0 v_ev     = 0 
v_et     = 0 v_ew     = -832.584 v_ep     = 0 
---------------- Step    24500 ----- CPU =      4.4793 (sec) ----------------
Step     =          24500 CPU      = 4.47933 Temp     =   3.2820629e-06 
Press    = 5202.88 PotEng   = -832.582 KinEng   = 8.10298e-08 
E_vdwl   = -832.582 E_coul   = 0 E_pair   = -832.582 
E_bond   = 0 E_angle  = 0 E_dihed  = 0 
Lx       = 10.8186 Ly       = 16.2541 Lz       = 21.7516 
Volume   = 3824.95 Pxx      = 6924.35 Pyy      = 5725.17 
Pzz      = 2959.1 Pxy      = -7.81623 Pxz      = 297.153 
Pyz      = -210.684 v_eb     = 0 v_ev     = 0 
v_et     = 0 v_ew     = -832.582 v_ep     = 0 
---------------- Step    24504 ----- CPU =      4.4801 (sec) ----------------
Step     =          24504 CPU      = 4.48013 Temp     =   4.0268739e-06 
Press    = 5203.73 PotEng   = -832.582 KinEng   = 9.94182e-08 
E_vdwl   = -832.582 E_coul   = 0 E_pair   = -832.582 
E_bond   = 0 E_angle  = 0 E_dihed  = 0 
Lx       = 10.8186 Ly       = 16.2541 Lz       = 21.7516 
Volume   = 3824.94 Pxx      = 6925.49 Pyy      = 5726.12 
Pzz      = 2959.59 Pxy      = -7.86138 Pxz      = 297.221 
Pyz      = -210.623 v_eb     = 0 v_ev     = 0 
v_et     = 0 v_ew     = -832.582 v_ep     = 0 
Loop time of 4.48016 on 1 procs for 24500 steps with 192 atoms

Performance: 944.967 ns/day, 0.025 hours/ns, 5468.558 timesteps/s
100.0% CPU use with 1 MPI tasks x no OpenMP threads

MPI task timing breakdown:
Section |  min time  |  avg time  |  max time  |%varavg| %total
---------------------------------------------------------------
Pair    | 4.1985     | 4.1985     | 4.1985     |   0.0 | 93.71
Neigh   | 0          | 0          | 0          |   0.0 |  0.00
Comm    | 0.099563   | 0.099563   | 0.099563   |   0.0 |  2.22
Output  | 0.0021071  | 0.0021071  | 0.0021071  |   0.0 |  0.05
Modify  | 0.14067    | 0.14067    | 0.14067    |   0.0 |  3.14
Other   |            | 0.03929    |            |       |  0.88

Nlocal:    192 ave 192 max 192 min
Histogram: 1 0 0 0 0 0 0 0 0 0
Nghost:    932 ave 932 max 932 min
Histogram: 1 0 0 0 0 0 0 0 0 0
Neighs:    0 ave 0 max 0 min
Histogram: 1 0 0 0 0 0 0 0 0 0
FullNghs:  6528 ave 6528 max 6528 min
Histogram: 1 0 0 0 0 0 0 0 0 0

Total # of neighbors = 6528
Ave neighs/atom = 34
Neighbor list builds = 0
Dangerous builds = 0

#  Releasing fix deform constraint
unfix 1

##  Setting 2fs timesteps
##timestep        dts #2.0  #(in wrapper)
#timestep        ${dts} #2.0
#
##  Running a molecular dynamics simulation for relaxation of applied strain
##  during the same amount of time
##run             nts #2000000  #(in wrapper)
#run             ${nts} #2000000

#  Releasing fix constraints
unfix 3
#unfix 4

#  Stopping dump
#undump            atom_dump

# Sample initial state
#variable nss equal ${nssample0}
#fix   shak all shake 0.001 20 1000 m 1.0
#fix   wholevol all nvt temp ${tempt} ${tempt} 100.0
#include ${locbe}/sample.mod.lammps
#unfix wholevol
#unfix shak

#variable tmp equal f_stress[1]
#variable pp11 equal ${tmp}
#variable tmp equal f_stress[2]
#variable pp22 equal ${tmp}
#variable tmp equal f_stress[3]
#variable pp33 equal ${tmp}
#variable tmp equal f_stress[4]
#variable pp12 equal ${tmp}
#variable tmp equal f_stress[5]
#variable pp13 equal ${tmp}
#variable tmp equal f_stress[6]
#variable pp23 equal ${tmp}
write_restart /home/jinzhen/projects/SCEMa/examples/test1/nanoscale_output/last.5.g0_1.dump
write_restart /home/jinzhen/projects/SCEMa/examples/test1/nanoscale_restart/lcts.5.g0_1.dump
Total wall time: 0:00:04
