LAMMPS (17 Nov 2016)
variable mdt string 0
variable loco string /home/jinzhen/projects/SCEMa/examples/test1/nanoscale_log/tmp/2-1.11.0_1
variable locs string ./lammps_scripts_sisw
variable tempt equal 0.010000
# This file is for a LAMMPS simulation created by James Suter
# The system is polyethane, using the CVFF forcefield
# the simulation will heat up to 500K, cooldown to 200K and then perform unixial stretching in the x direction

##  This script should be just run once at the beginning to provide the initial
##  reference testing box, which will the be evolved using the in.lammps.strain
##  input file.

## Should we optimize the lammps call depending on the computer setup?
## suffix OMP

#  Setting units convention for the rest of the file
units           real            # default

#  Setting variables/attributes associated with each atom: charge, bonds, angles,
#  dihedrals, impropers (full)
atom_style      full

#  Setting the dimension of the simulation
dimension       3               # default

#  Setting boundary types in each dimension (periodic)
boundary        p p p

# Choose potential
pair_style	sw

# Setup neighbor style
neighbor 1.0 nsq
neigh_modify once no every 1 delay 0 check yes
read_restart /home/jinzhen/projects/SCEMa/examples/test1/nanoscale_output/last.11.g0_1.dump
  triclinic box = (-0.000949778 -0.00142467 -0.150057) to (10.8609 16.2914 21.8701) with tilt (0 0 0)
  1 by 1 by 1 MPI processor grid
  192 atoms
print 'specifically computed'
specifically computed
variable ll1 equal lx
variable ll2 equal ly
variable ll3 equal lz
variable dts equal 0.002000
variable nts equal 65060
variable ceeps_00 equal -2.758364e-05
variable ceeps_01 equal 8.366063e-07
variable ceeps_02 equal 1.826450e-06
variable ceeps_11 equal -1.827973e-05
variable ceeps_12 equal 2.755347e-06
variable ceeps_22 equal 9.424050e-05
# This file is for a LAMMPS simulation created by James Suter
# The system is polyethane, using the CVFF forcefield
# the simulation will heat up to 500K, cooldown to 200K and then perform unixial stretching in the x direction

## Should we optimize the lammps call depending on the computer setup?
## suffix OMP

pair_coeff * * ${locs}/Si.sw Si
pair_coeff * * ./lammps_scripts_sisw/Si.sw Si
Reading potential file ./lammps_scripts_sisw/Si.sw with DATE: 2007-06-11

variable eb      equal "ebond"
variable ea      equal "epair"
variable ev      equal "eangle"
variable et      equal "edihed"
variable ew      equal "evdwl"
variable ep      equal "ecoul"


##  -------------------------------------------
#   Calculate the stress-strain curve for uniaxial extension in the x direction

#  Setting to display thermodynamical information on the system every 500 steps
thermo          500

#  Setting the type of thermodynamical information to be printed: T, P, energies, dimesions, V, stress tensor
thermo_style    custom step cpu temp press pe ke evdwl ecoul epair ebond eangle edihed lx ly lz vol pxx pyy pzz pxy pxz pyz v_eb v_ev v_et v_ew v_ep

#  Setting the syntax of the printed thermodynamical information
thermo_modify   flush yes line multi format float %g format 3 %15.8g

#  Setting printing position information on all atoms every 5000 steps PE_stress_strain_x.xyz
#  file specifying atom type 1, 2 and 3 with names respectively C, C and H  (identical as
#  previous with different file name)
#dump            atom_dump all atom ${ndump} ${loco}/${mdt}_straining.atom
#dump            xyz_dump all xyz 5000    ${loco}/${mdt}_stress_strain_x.xyz
#dump_modify     xyz_dump element  C C H

#  Printing evolution of stress for comparison
variable pt equal "step"
variable pp equal "press"
variable p0 equal "pxx"
variable p1 equal "pyy"
variable p2 equal "pzz"
variable p10 equal "pxy"
variable p11 equal "pxz"
variable p12 equal "pyz"
variable p3 equal "pe"
variable p4 equal "ke"
variable p5 equal "temp"
variable p6 equal "lx"
variable p7 equal "ly"
variable p8 equal "lz"
variable p9 equal "vol"
variable evdwl equal "evdwl"
variable ecoul equal "ecoul"
variable eatom equal "epair"
variable ebond equal "ebond"
variable eangle equal "eangle"
variable edihed equal "edihed"

#  Storing initial dimensions of the box
variable lx1 equal ${p6}
variable lx1 equal 10.8618995568104
variable ly1 equal ${p7}
variable ly1 equal 16.2928493352156
variable lz1 equal ${p8}
variable lz1 equal 22.0201140172711

#  Compute current stress using sampling over time and fixed NVT conditions
#fix 1e all print 1 "${pt} ${pp} ${p0} ${p1} ${p2} ${p10} ${p11} ${p12} ${p3} ${p4} ${p5} ${p6} ${p7} ${p8} ${p9} ${evdwl} ${ecoul} ${eatom} ${ebond} ${eangle} ${edihed}" file ${loco}/${mdt}_strain_press_evol.dat screen no

#  Setting a Verlet time solution algorithm/integrator
run_style       verlet

#  Loading the same fix 4 as in the init.lammps set of commands.
#fix             4  all shake 0.001 20 1000 m 1.0  # SHAKE to keep bond distances / angles involving H-atoms fixe

#  Setting a global constraint of canonical ensemble on all atoms, the temperature is set constant at 200k
#  with a relaxation time of 100fs
#  > Is this done right, namely sufficiently constrained? Volume is later controlled by the fix deform
#  on all the components of the strain tensor...
#fix             3 all nvt temp 200.0 200.0 100
#fix             3 all langevin 200.0 200.0 100.0 699483
#fix             3 all nvt/sllod temp ${tempt} ${tempt} 100.0
fix             3 all nvt temp ${tempt} ${tempt} 100.0
fix             3 all nvt temp 0.01 ${tempt} 100.0
fix             3 all nvt temp 0.01 0.01 100.0

# Note: these computes are present by default in any input script when using thermo command
#compute thermo_press all temp
#compute thermo_press all pressure thermo_temp

#  Setting a strain constraint every 1 steps in the x-direction on the box at a strain rate of 1e-7 fs-1, position of
#  all atoms positions are remapped following an affine transformation, namely proportional to the box deformation.
##  Is it pertinent to remap the coordinates proportionaly to the applied
##  strains? Should we remap velocities? Or none?
##  This command might be moved to the C++ wrapper file (as well as all the
##  commands that can not be set before, probably just the run command, and
##  maybe timestep for practicality).
#print "${eeps_00} ${eeps_11} ${eeps_22} ${eeps_01} ${eeps_02} ${eeps_12}"
fix             1 all deform 1  x erate ${ceeps_00}                                 y erate ${ceeps_11}                                 z erate ${ceeps_22}                                xy erate ${ceeps_01}                                xz erate ${ceeps_02}                                yz erate ${ceeps_12}                                remap x
fix             1 all deform 1  x erate -2.758364e-05                                 y erate ${ceeps_11}                                 z erate ${ceeps_22}                                xy erate ${ceeps_01}                                xz erate ${ceeps_02}                                yz erate ${ceeps_12}                                remap x
fix             1 all deform 1  x erate -2.758364e-05                                 y erate -1.827973e-05                                 z erate ${ceeps_22}                                xy erate ${ceeps_01}                                xz erate ${ceeps_02}                                yz erate ${ceeps_12}                                remap x
fix             1 all deform 1  x erate -2.758364e-05                                 y erate -1.827973e-05                                 z erate 9.42405e-05                                xy erate ${ceeps_01}                                xz erate ${ceeps_02}                                yz erate ${ceeps_12}                                remap x
fix             1 all deform 1  x erate -2.758364e-05                                 y erate -1.827973e-05                                 z erate 9.42405e-05                                xy erate 8.366063e-07                                xz erate ${ceeps_02}                                yz erate ${ceeps_12}                                remap x
fix             1 all deform 1  x erate -2.758364e-05                                 y erate -1.827973e-05                                 z erate 9.42405e-05                                xy erate 8.366063e-07                                xz erate 1.82645e-06                                yz erate ${ceeps_12}                                remap x
fix             1 all deform 1  x erate -2.758364e-05                                 y erate -1.827973e-05                                 z erate 9.42405e-05                                xy erate 8.366063e-07                                xz erate 1.82645e-06                                yz erate 2.755347e-06                                remap x

#  Setting 2fs timesteps
#timestep        dts #2.0  #(in wrapper)
timestep        ${dts} #2.0
timestep        0.002 

#  Running a molecular dynamics simulation for 2000000 timesteps
#run             nts #2000000  #(in wrapper)
run             ${nts} #2000000
run             65060 
Neighbor list info ...
  1 neighbor list requests
  update every 1 steps, delay 0 steps, check yes
  max neighbors/atom: 2000, page size: 100000
  master list distance cutoff = 5.77118
  ghost atom cutoff = 5.77118
Memory usage per processor = 2.32527 Mbytes
---------------- Step    68214 ----- CPU =      0.0000 (sec) ----------------
Step     =          68214 CPU      = 0 Temp     =   4.1724453e-06 
Press    = -13503.7 PotEng   = -832.293 KinEng   = 1.03012e-07 
E_vdwl   = -832.293 E_coul   = 0 E_pair   = -832.293 
E_bond   = 0 E_angle  = 0 E_dihed  = 0 
Lx       = 10.8619 Ly       = 16.2928 Lz       = 22.0201 
Volume   = 3896.93 Pxx      = -10085.1 Pyy      = -10085.1 
Pzz      = -20341 Pxy      = -1.32971 Pxz      = 0.0535564 
Pyz      = -0.307749 v_eb     = 0 v_ev     = 0 
v_et     = 0 v_ew     = -832.293 v_ep     = 0 
---------------- Step    68500 ----- CPU =      0.0539 (sec) ----------------
Step     =          68500 CPU      = 0.053875 Temp     =   3.6780565e-06 
Press    = -13530.9 PotEng   = -832.291 KinEng   = 9.08064e-08 
E_vdwl   = -832.291 E_coul   = 0 E_pair   = -832.291 
E_bond   = 0 E_angle  = 0 E_dihed  = 0 
Lx       = 10.8617 Ly       = 16.2927 Lz       = 22.0213 
Volume   = 3897.04 Pxx      = -10093.3 Pyy      = -10097.1 
Pzz      = -20402.2 Pxy      = -2.11449 Pxz      = -0.603494 
Pyz      = -0.84719 v_eb     = 0 v_ev     = 0 
v_et     = 0 v_ew     = -832.291 v_ep     = 0 
---------------- Step    69000 ----- CPU =      0.1447 (sec) ----------------
Step     =          69000 CPU      = 0.144727 Temp     =   5.0040483e-06 
Press    = -13578.6 PotEng   = -832.287 KinEng   = 1.23543e-07 
E_vdwl   = -832.287 E_coul   = 0 E_pair   = -832.287 
E_bond   = 0 E_angle  = 0 E_dihed  = 0 
Lx       = 10.8614 Ly       = 16.2924 Lz       = 22.0234 
Volume   = 3897.22 Pxx      = -10107.7 Pyy      = -10118.3 
Pzz      = -20509.7 Pxy      = 0.652493 Pxz      = -1.53391 
Pyz      = -2.922 v_eb     = 0 v_ev     = 0 
v_et     = 0 v_ew     = -832.287 v_ep     = 0 
---------------- Step    69500 ----- CPU =      0.2358 (sec) ----------------
Step     =          69500 CPU      = 0.23578 Temp     =   5.1841749e-06 
Press    = -13626.3 PotEng   = -832.283 KinEng   = 1.2799e-07 
E_vdwl   = -832.283 E_coul   = 0 E_pair   = -832.283 
E_bond   = 0 E_angle  = 0 E_dihed  = 0 
Lx       = 10.8611 Ly       = 16.2921 Lz       = 22.0255 
Volume   = 3897.41 Pxx      = -10122.1 Pyy      = -10139.5 
Pzz      = -20617.2 Pxy      = -1.03091 Pxz      = -2.70881 
Pyz      = -3.75027 v_eb     = 0 v_ev     = 0 
v_et     = 0 v_ew     = -832.283 v_ep     = 0 
---------------- Step    70000 ----- CPU =      0.3276 (sec) ----------------
Step     =          70000 CPU      = 0.327631 Temp     =   4.2550833e-06 
Press    = -13673.9 PotEng   = -832.28 KinEng   = 1.05052e-07 
E_vdwl   = -832.28 E_coul   = 0 E_pair   = -832.28 
E_bond   = 0 E_angle  = 0 E_dihed  = 0 
Lx       = 10.8608 Ly       = 16.2918 Lz       = 22.0275 
Volume   = 3897.6 Pxx      = -10136.5 Pyy      = -10160.7 
Pzz      = -20724.6 Pxy      = -3.26436 Pxz      = -3.75752 
Pyz      = -5.28441 v_eb     = 0 v_ev     = 0 
v_et     = 0 v_ew     = -832.28 v_ep     = 0 
---------------- Step    70500 ----- CPU =      0.4184 (sec) ----------------
Step     =          70500 CPU      = 0.41838 Temp     =   4.7230076e-06 
Press    = -13721.6 PotEng   = -832.276 KinEng   = 1.16605e-07 
E_vdwl   = -832.276 E_coul   = 0 E_pair   = -832.276 
E_bond   = 0 E_angle  = 0 E_dihed  = 0 
Lx       = 10.8605 Ly       = 16.2915 Lz       = 22.0296 
Volume   = 3897.79 Pxx      = -10150.9 Pyy      = -10181.8 
Pzz      = -20832.1 Pxy      = -0.373438 Pxz      = -4.64486 
Pyz      = -7.60023 v_eb     = 0 v_ev     = 0 
v_et     = 0 v_ew     = -832.276 v_ep     = 0 
---------------- Step    71000 ----- CPU =      0.5093 (sec) ----------------
Step     =          71000 CPU      = 0.509259 Temp     =   5.1516524e-06 
Press    = -13769.2 PotEng   = -832.273 KinEng   = 1.27188e-07 
E_vdwl   = -832.273 E_coul   = 0 E_pair   = -832.273 
E_bond   = 0 E_angle  = 0 E_dihed  = 0 
Lx       = 10.8602 Ly       = 16.2912 Lz       = 22.0317 
Volume   = 3897.98 Pxx      = -10165.3 Pyy      = -10202.9 
Pzz      = -20939.6 Pxy      = -3.20202 Pxz      = -5.76663 
Pyz      = -8.68079 v_eb     = 0 v_ev     = 0 
v_et     = 0 v_ew     = -832.273 v_ep     = 0 
---------------- Step    71500 ----- CPU =      0.5999 (sec) ----------------
Step     =          71500 CPU      = 0.599915 Temp     =   4.1404749e-06 
Press    = -13816.9 PotEng   = -832.269 KinEng   = 1.02223e-07 
E_vdwl   = -832.269 E_coul   = 0 E_pair   = -832.269 
E_bond   = 0 E_angle  = 0 E_dihed  = 0 
Lx       = 10.8599 Ly       = 16.2909 Lz       = 22.0338 
Volume   = 3898.17 Pxx      = -10179.6 Pyy      = -10224 
Pzz      = -21047 Pxy      = -4.10469 Pxz      = -6.89171 
Pyz      = -9.81621 v_eb     = 0 v_ev     = 0 
v_et     = 0 v_ew     = -832.269 v_ep     = 0 
---------------- Step    72000 ----- CPU =      0.6926 (sec) ----------------
Step     =          72000 CPU      = 0.692621 Temp     =   3.8854139e-06 
Press    = -13864.5 PotEng   = -832.265 KinEng   = 9.59258e-08 
E_vdwl   = -832.265 E_coul   = 0 E_pair   = -832.265 
E_bond   = 0 E_angle  = 0 E_dihed  = 0 
Lx       = 10.8596 Ly       = 16.2906 Lz       = 22.0358 
Volume   = 3898.35 Pxx      = -10194 Pyy      = -10245.1 
Pzz      = -21154.4 Pxy      = -1.67593 Pxz      = -7.77844 
Pyz      = -12.1538 v_eb     = 0 v_ev     = 0 
v_et     = 0 v_ew     = -832.265 v_ep     = 0 
---------------- Step    72500 ----- CPU =      0.7851 (sec) ----------------
Step     =          72500 CPU      = 0.785057 Temp     =   4.8240159e-06 
Press    = -13912.1 PotEng   = -832.261 KinEng   = 1.19099e-07 
E_vdwl   = -832.261 E_coul   = 0 E_pair   = -832.261 
E_bond   = 0 E_angle  = 0 E_dihed  = 0 
Lx       = 10.8593 Ly       = 16.2903 Lz       = 22.0379 
Volume   = 3898.54 Pxx      = -10208.3 Pyy      = -10266.2 
Pzz      = -21261.9 Pxy      = -5.35488 Pxz      = -8.82665 
Pyz      = -13.6017 v_eb     = 0 v_ev     = 0 
v_et     = 0 v_ew     = -832.261 v_ep     = 0 
---------------- Step    73000 ----- CPU =      0.8768 (sec) ----------------
Step     =          73000 CPU      = 0.876791 Temp     =   4.2492307e-06 
Press    = -13959.7 PotEng   = -832.258 KinEng   = 1.04908e-07 
E_vdwl   = -832.258 E_coul   = 0 E_pair   = -832.258 
E_bond   = 0 E_angle  = 0 E_dihed  = 0 
Lx       = 10.859 Ly       = 16.29 Lz       = 22.04 
Volume   = 3898.73 Pxx      = -10222.6 Pyy      = -10287.2 
Pzz      = -21369.3 Pxy      = -4.64593 Pxz      = -10.0025 
Pyz      = -14.4665 v_eb     = 0 v_ev     = 0 
v_et     = 0 v_ew     = -832.258 v_ep     = 0 
---------------- Step    73500 ----- CPU =      0.9679 (sec) ----------------
Step     =          73500 CPU      = 0.967943 Temp     =   4.7488444e-06 
Press    = -14007.3 PotEng   = -832.254 KinEng   = 1.17243e-07 
E_vdwl   = -832.254 E_coul   = 0 E_pair   = -832.254 
E_bond   = 0 E_angle  = 0 E_dihed  = 0 
Lx       = 10.8587 Ly       = 16.2897 Lz       = 22.0421 
Volume   = 3898.92 Pxx      = -10236.9 Pyy      = -10308.3 
Pzz      = -21476.7 Pxy      = -3.41418 Pxz      = -10.9235 
Pyz      = -16.636 v_eb     = 0 v_ev     = 0 
v_et     = 0 v_ew     = -832.254 v_ep     = 0 
---------------- Step    74000 ----- CPU =      1.0591 (sec) ----------------
Step     =          74000 CPU      = 1.05909 Temp     =   4.3669857e-06 
Press    = -14054.9 PotEng   = -832.25 KinEng   = 1.07815e-07 
E_vdwl   = -832.25 E_coul   = 0 E_pair   = -832.25 
E_bond   = 0 E_angle  = 0 E_dihed  = 0 
Lx       = 10.8584 Ly       = 16.2894 Lz       = 22.0441 
Volume   = 3899.11 Pxx      = -10251.2 Pyy      = -10329.3 
Pzz      = -21584.1 Pxy      = -7.24803 Pxz      = -11.899 
Pyz      = -18.4586 v_eb     = 0 v_ev     = 0 
v_et     = 0 v_ew     = -832.25 v_ep     = 0 
---------------- Step    74500 ----- CPU =      1.1497 (sec) ----------------
Step     =          74500 CPU      = 1.14968 Temp     =   4.5940208e-06 
Press    = -14102.4 PotEng   = -832.246 KinEng   = 1.1342e-07 
E_vdwl   = -832.246 E_coul   = 0 E_pair   = -832.246 
E_bond   = 0 E_angle  = 0 E_dihed  = 0 
Lx       = 10.8581 Ly       = 16.2891 Lz       = 22.0462 
Volume   = 3899.3 Pxx      = -10265.4 Pyy      = -10350.3 
Pzz      = -21691.5 Pxy      = -5.04638 Pxz      = -13.0933 
Pyz      = -19.2222 v_eb     = 0 v_ev     = 0 
v_et     = 0 v_ew     = -832.246 v_ep     = 0 
---------------- Step    75000 ----- CPU =      1.2405 (sec) ----------------
Step     =          75000 CPU      = 1.24048 Temp     =   4.2217779e-06 
Press    = -14150 PotEng   = -832.243 KinEng   = 1.0423e-07 
E_vdwl   = -832.243 E_coul   = 0 E_pair   = -832.243 
E_bond   = 0 E_angle  = 0 E_dihed  = 0 
Lx       = 10.8578 Ly       = 16.2888 Lz       = 22.0483 
Volume   = 3899.48 Pxx      = -10279.7 Pyy      = -10371.3 
Pzz      = -21798.9 Pxy      = -5.64722 Pxz      = -14.069 
Pyz      = -21.1033 v_eb     = 0 v_ev     = 0 
v_et     = 0 v_ew     = -832.243 v_ep     = 0 
---------------- Step    75500 ----- CPU =      1.3315 (sec) ----------------
Step     =          75500 CPU      = 1.33151 Temp     =   4.2797984e-06 
Press    = -14197.5 PotEng   = -832.239 KinEng   = 1.05663e-07 
E_vdwl   = -832.239 E_coul   = 0 E_pair   = -832.239 
E_bond   = 0 E_angle  = 0 E_dihed  = 0 
Lx       = 10.8575 Ly       = 16.2885 Lz       = 22.0504 
Volume   = 3899.67 Pxx      = -10294 Pyy      = -10392.2 
Pzz      = -21906.3 Pxy      = -8.60693 Pxz      = -14.9882 
Pyz      = -23.2272 v_eb     = 0 v_ev     = 0 
v_et     = 0 v_ew     = -832.239 v_ep     = 0 
---------------- Step    76000 ----- CPU =      1.4221 (sec) ----------------
Step     =          76000 CPU      = 1.42212 Temp     =   4.0773223e-06 
Press    = -14245 PotEng   = -832.235 KinEng   = 1.00664e-07 
E_vdwl   = -832.235 E_coul   = 0 E_pair   = -832.235 
E_bond   = 0 E_angle  = 0 E_dihed  = 0 
Lx       = 10.8572 Ly       = 16.2882 Lz       = 22.0524 
Volume   = 3899.86 Pxx      = -10308.2 Pyy      = -10413.2 
Pzz      = -22013.7 Pxy      = -5.63643 Pxz      = -16.1706 
Pyz      = -24.0488 v_eb     = 0 v_ev     = 0 
v_et     = 0 v_ew     = -832.235 v_ep     = 0 
---------------- Step    76500 ----- CPU =      1.5131 (sec) ----------------
Step     =          76500 CPU      = 1.51306 Temp     =   5.3622634e-06 
Press    = -14292.6 PotEng   = -832.231 KinEng   = 1.32387e-07 
E_vdwl   = -832.231 E_coul   = 0 E_pair   = -832.231 
E_bond   = 0 E_angle  = 0 E_dihed  = 0 
Lx       = 10.8569 Ly       = 16.2879 Lz       = 22.0545 
Volume   = 3900.05 Pxx      = -10322.4 Pyy      = -10434.1 
Pzz      = -22121.1 Pxy      = -8.21671 Pxz      = -17.2069 
Pyz      = -25.5993 v_eb     = 0 v_ev     = 0 
v_et     = 0 v_ew     = -832.231 v_ep     = 0 
---------------- Step    77000 ----- CPU =      1.6056 (sec) ----------------
Step     =          77000 CPU      = 1.60558 Temp     =   5.7863992e-06 
Press    = -14340.1 PotEng   = -832.227 KinEng   = 1.42859e-07 
E_vdwl   = -832.227 E_coul   = 0 E_pair   = -832.227 
E_bond   = 0 E_angle  = 0 E_dihed  = 0 
Lx       = 10.8566 Ly       = 16.2876 Lz       = 22.0566 
Volume   = 3900.24 Pxx      = -10336.6 Pyy      = -10455 
Pzz      = -22228.5 Pxy      = -9.27347 Pxz      = -18.0938 
Pyz      = -27.9095 v_eb     = 0 v_ev     = 0 
v_et     = 0 v_ew     = -832.227 v_ep     = 0 
---------------- Step    77500 ----- CPU =      1.6963 (sec) ----------------
Step     =          77500 CPU      = 1.6963 Temp     =    4.415045e-06 
Press    = -14387.5 PotEng   = -832.223 KinEng   = 1.09002e-07 
E_vdwl   = -832.223 E_coul   = 0 E_pair   = -832.223 
E_bond   = 0 E_angle  = 0 E_dihed  = 0 
Lx       = 10.8563 Ly       = 16.2873 Lz       = 22.0587 
Volume   = 3900.42 Pxx      = -10350.8 Pyy      = -10475.9 
Pzz      = -22335.9 Pxy      = -6.836 Pxz      = -19.2414 
Pyz      = -28.9064 v_eb     = 0 v_ev     = 0 
v_et     = 0 v_ew     = -832.223 v_ep     = 0 
---------------- Step    78000 ----- CPU =      1.7868 (sec) ----------------
Step     =          78000 CPU      = 1.78683 Temp     =   5.5550519e-06 
Press    = -14435 PotEng   = -832.219 KinEng   = 1.37147e-07 
E_vdwl   = -832.219 E_coul   = 0 E_pair   = -832.219 
E_bond   = 0 E_angle  = 0 E_dihed  = 0 
Lx       = 10.856 Ly       = 16.287 Lz       = 22.0607 
Volume   = 3900.61 Pxx      = -10365 Pyy      = -10496.8 
Pzz      = -22443.3 Pxy      = -10.6872 Pxz      = -20.3334 
Pyz      = -30.149 v_eb     = 0 v_ev     = 0 
v_et     = 0 v_ew     = -832.219 v_ep     = 0 
---------------- Step    78500 ----- CPU =      1.8791 (sec) ----------------
Step     =          78500 CPU      = 1.87915 Temp     =   4.5708906e-06 
Press    = -14482.5 PotEng   = -832.215 KinEng   = 1.12849e-07 
E_vdwl   = -832.215 E_coul   = 0 E_pair   = -832.215 
E_bond   = 0 E_angle  = 0 E_dihed  = 0 
Lx       = 10.8557 Ly       = 16.2867 Lz       = 22.0628 
Volume   = 3900.8 Pxx      = -10379.2 Pyy      = -10517.7 
Pzz      = -22550.6 Pxy      = -9.40202 Pxz      = -21.2119 
Pyz      = -32.5236 v_eb     = 0 v_ev     = 0 
v_et     = 0 v_ew     = -832.215 v_ep     = 0 
---------------- Step    79000 ----- CPU =      1.9709 (sec) ----------------
Step     =          79000 CPU      = 1.97091 Temp     =   4.8170887e-06 
Press    = -14529.9 PotEng   = -832.211 KinEng   = 1.18928e-07 
E_vdwl   = -832.211 E_coul   = 0 E_pair   = -832.211 
E_bond   = 0 E_angle  = 0 E_dihed  = 0 
Lx       = 10.8554 Ly       = 16.2864 Lz       = 22.0649 
Volume   = 3900.99 Pxx      = -10393.3 Pyy      = -10538.6 
Pzz      = -22658 Pxy      = -8.92357 Pxz      = -22.3111 
Pyz      = -33.7608 v_eb     = 0 v_ev     = 0 
v_et     = 0 v_ew     = -832.211 v_ep     = 0 
---------------- Step    79500 ----- CPU =      2.0622 (sec) ----------------
Step     =          79500 CPU      = 2.06221 Temp     =    4.299476e-06 
Press    = -14577.4 PotEng   = -832.207 KinEng   = 1.06148e-07 
E_vdwl   = -832.207 E_coul   = 0 E_pair   = -832.207 
E_bond   = 0 E_angle  = 0 E_dihed  = 0 
Lx       = 10.8551 Ly       = 16.2861 Lz       = 22.067 
Volume   = 3901.18 Pxx      = -10407.4 Pyy      = -10559.4 
Pzz      = -22765.3 Pxy      = -12.4627 Pxz      = -23.4488 
Pyz      = -34.7597 v_eb     = 0 v_ev     = 0 
v_et     = 0 v_ew     = -832.207 v_ep     = 0 
---------------- Step    80000 ----- CPU =      2.1530 (sec) ----------------
Step     =          80000 CPU      = 2.15299 Temp     =   4.9203246e-06 
Press    = -14624.8 PotEng   = -832.203 KinEng   = 1.21476e-07 
E_vdwl   = -832.203 E_coul   = 0 E_pair   = -832.203 
E_bond   = 0 E_angle  = 0 E_dihed  = 0 
Lx       = 10.8548 Ly       = 16.2858 Lz       = 22.069 
Volume   = 3901.36 Pxx      = -10421.6 Pyy      = -10580.2 
Pzz      = -22872.7 Pxy      = -9.56421 Pxz      = -24.3371 
Pyz      = -37.0942 v_eb     = 0 v_ev     = 0 
v_et     = 0 v_ew     = -832.203 v_ep     = 0 
---------------- Step    80500 ----- CPU =      2.2446 (sec) ----------------
Step     =          80500 CPU      = 2.24456 Temp     =     5.20742e-06 
Press    = -14672.2 PotEng   = -832.199 KinEng   = 1.28564e-07 
E_vdwl   = -832.199 E_coul   = 0 E_pair   = -832.199 
E_bond   = 0 E_angle  = 0 E_dihed  = 0 
Lx       = 10.8545 Ly       = 16.2855 Lz       = 22.0711 
Volume   = 3901.55 Pxx      = -10435.7 Pyy      = -10601 
Pzz      = -22980 Pxy      = -11.727 Pxz      = -25.3835 
Pyz      = -38.5891 v_eb     = 0 v_ev     = 0 
v_et     = 0 v_ew     = -832.199 v_ep     = 0 
---------------- Step    81000 ----- CPU =      2.3358 (sec) ----------------
Step     =          81000 CPU      = 2.33583 Temp     =   4.5188485e-06 
Press    = -14719.7 PotEng   = -832.195 KinEng   = 1.11564e-07 
E_vdwl   = -832.195 E_coul   = 0 E_pair   = -832.195 
E_bond   = 0 E_angle  = 0 E_dihed  = 0 
Lx       = 10.8542 Ly       = 16.2852 Lz       = 22.0732 
Volume   = 3901.74 Pxx      = -10449.8 Pyy      = -10621.8 
Pzz      = -23087.4 Pxy      = -13.1446 Pxz      = -26.5556 
Pyz      = -39.426 v_eb     = 0 v_ev     = 0 
v_et     = 0 v_ew     = -832.195 v_ep     = 0 
---------------- Step    81500 ----- CPU =      2.4274 (sec) ----------------
Step     =          81500 CPU      = 2.42741 Temp     =   4.9210471e-06 
Press    = -14767 PotEng   = -832.191 KinEng   = 1.21494e-07 
E_vdwl   = -832.191 E_coul   = 0 E_pair   = -832.191 
E_bond   = 0 E_angle  = 0 E_dihed  = 0 
Lx       = 10.8539 Ly       = 16.2849 Lz       = 22.0753 
Volume   = 3901.93 Pxx      = -10463.9 Pyy      = -10642.6 
Pzz      = -23194.7 Pxy      = -10.5627 Pxz      = -27.4635 
Pyz      = -41.6443 v_eb     = 0 v_ev     = 0 
v_et     = 0 v_ew     = -832.191 v_ep     = 0 
---------------- Step    82000 ----- CPU =      2.5189 (sec) ----------------
Step     =          82000 CPU      = 2.51888 Temp     =   4.4154243e-06 
Press    = -14814.4 PotEng   = -832.187 KinEng   = 1.09011e-07 
E_vdwl   = -832.187 E_coul   = 0 E_pair   = -832.187 
E_bond   = 0 E_angle  = 0 E_dihed  = 0 
Lx       = 10.8536 Ly       = 16.2846 Lz       = 22.0773 
Volume   = 3902.11 Pxx      = -10477.9 Pyy      = -10663.3 
Pzz      = -23302 Pxy      = -14.4794 Pxz      = -28.4616 
Pyz      = -43.381 v_eb     = 0 v_ev     = 0 
v_et     = 0 v_ew     = -832.187 v_ep     = 0 
---------------- Step    82500 ----- CPU =      2.6097 (sec) ----------------
Step     =          82500 CPU      = 2.60973 Temp     =    4.724758e-06 
Press    = -14861.8 PotEng   = -832.182 KinEng   = 1.16648e-07 
E_vdwl   = -832.182 E_coul   = 0 E_pair   = -832.182 
E_bond   = 0 E_angle  = 0 E_dihed  = 0 
Lx       = 10.8533 Ly       = 16.2843 Lz       = 22.0794 
Volume   = 3902.3 Pxx      = -10492 Pyy      = -10684.1 
Pzz      = -23409.3 Pxy      = -12.9908 Pxz      = -29.6562 
Pyz      = -44.1343 v_eb     = 0 v_ev     = 0 
v_et     = 0 v_ew     = -832.182 v_ep     = 0 
---------------- Step    83000 ----- CPU =      2.7006 (sec) ----------------
Step     =          83000 CPU      = 2.70061 Temp     =   4.7544916e-06 
Press    = -14909.2 PotEng   = -832.178 KinEng   = 1.17382e-07 
E_vdwl   = -832.178 E_coul   = 0 E_pair   = -832.178 
E_bond   = 0 E_angle  = 0 E_dihed  = 0 
Lx       = 10.853 Ly       = 16.284 Lz       = 22.0815 
Volume   = 3902.49 Pxx      = -10506 Pyy      = -10704.8 
Pzz      = -23516.6 Pxy      = -12.8736 Pxz      = -30.5864 
Pyz      = -46.1922 v_eb     = 0 v_ev     = 0 
v_et     = 0 v_ew     = -832.178 v_ep     = 0 
---------------- Step    83500 ----- CPU =      2.7917 (sec) ----------------
Step     =          83500 CPU      = 2.79167 Temp     =   4.6227216e-06 
Press    = -14956.5 PotEng   = -832.174 KinEng   = 1.14129e-07 
E_vdwl   = -832.174 E_coul   = 0 E_pair   = -832.174 
E_bond   = 0 E_angle  = 0 E_dihed  = 0 
Lx       = 10.8527 Ly       = 16.2837 Lz       = 22.0836 
Volume   = 3902.68 Pxx      = -10520.1 Pyy      = -10725.5 
Pzz      = -23623.9 Pxy      = -16.1535 Pxz      = -31.5475 
Pyz      = -48.136 v_eb     = 0 v_ev     = 0 
v_et     = 0 v_ew     = -832.174 v_ep     = 0 
---------------- Step    84000 ----- CPU =      2.8826 (sec) ----------------
Step     =          84000 CPU      = 2.88264 Temp     =   4.7009056e-06 
Press    = -15003.9 PotEng   = -832.17 KinEng   = 1.16059e-07 
E_vdwl   = -832.17 E_coul   = 0 E_pair   = -832.17 
E_bond   = 0 E_angle  = 0 E_dihed  = 0 
Lx       = 10.8524 Ly       = 16.2834 Lz       = 22.0856 
Volume   = 3902.87 Pxx      = -10534.1 Pyy      = -10746.2 
Pzz      = -23731.2 Pxy      = -13.0539 Pxz      = -32.7516 
Pyz      = -48.8682 v_eb     = 0 v_ev     = 0 
v_et     = 0 v_ew     = -832.17 v_ep     = 0 
---------------- Step    84500 ----- CPU =      2.9737 (sec) ----------------
Step     =          84500 CPU      = 2.97368 Temp     =    4.575658e-06 
Press    = -15051.2 PotEng   = -832.165 KinEng   = 1.12967e-07 
E_vdwl   = -832.165 E_coul   = 0 E_pair   = -832.165 
E_bond   = 0 E_angle  = 0 E_dihed  = 0 
Lx       = 10.8521 Ly       = 16.2831 Lz       = 22.0877 
Volume   = 3903.05 Pxx      = -10548.1 Pyy      = -10766.9 
Pzz      = -23838.5 Pxy      = -16.0178 Pxz      = -33.7044 
Pyz      = -50.7505 v_eb     = 0 v_ev     = 0 
v_et     = 0 v_ew     = -832.165 v_ep     = 0 
---------------- Step    85000 ----- CPU =      3.0653 (sec) ----------------
Step     =          85000 CPU      = 3.06532 Temp     =   4.9015097e-06 
Press    = -15098.5 PotEng   = -832.161 KinEng   = 1.21012e-07 
E_vdwl   = -832.161 E_coul   = 0 E_pair   = -832.161 
E_bond   = 0 E_angle  = 0 E_dihed  = 0 
Lx       = 10.8518 Ly       = 16.2829 Lz       = 22.0898 
Volume   = 3903.24 Pxx      = -10562.1 Pyy      = -10787.6 
Pzz      = -23945.8 Pxy      = -16.3147 Pxz      = -34.6417 
Pyz      = -52.8595 v_eb     = 0 v_ev     = 0 
v_et     = 0 v_ew     = -832.161 v_ep     = 0 
---------------- Step    85500 ----- CPU =      3.1560 (sec) ----------------
Step     =          85500 CPU      = 3.15596 Temp     =   3.7825714e-06 
Press    = -15145.8 PotEng   = -832.157 KinEng   = 9.33867e-08 
E_vdwl   = -832.157 E_coul   = 0 E_pair   = -832.157 
E_bond   = 0 E_angle  = 0 E_dihed  = 0 
Lx       = 10.8515 Ly       = 16.2826 Lz       = 22.0919 
Volume   = 3903.43 Pxx      = -10576.1 Pyy      = -10808.2 
Pzz      = -24053.1 Pxy      = -14.5526 Pxz      = -35.8416 
Pyz      = -53.6119 v_eb     = 0 v_ev     = 0 
v_et     = 0 v_ew     = -832.157 v_ep     = 0 
---------------- Step    86000 ----- CPU =      3.2472 (sec) ----------------
Step     =          86000 CPU      = 3.2472 Temp     =   4.5065194e-06 
Press    = -15193.1 PotEng   = -832.153 KinEng   = 1.1126e-07 
E_vdwl   = -832.153 E_coul   = 0 E_pair   = -832.153 
E_bond   = 0 E_angle  = 0 E_dihed  = 0 
Lx       = 10.8512 Ly       = 16.2823 Lz       = 22.0939 
Volume   = 3903.62 Pxx      = -10590 Pyy      = -10828.8 
Pzz      = -24160.4 Pxy      = -18.5621 Pxz      = -36.8193 
Pyz      = -55.3276 v_eb     = 0 v_ev     = 0 
v_et     = 0 v_ew     = -832.153 v_ep     = 0 
---------------- Step    86500 ----- CPU =      3.3380 (sec) ----------------
Step     =          86500 CPU      = 3.33796 Temp     =    4.837456e-06 
Press    = -15240.4 PotEng   = -832.148 KinEng   = 1.1943e-07 
E_vdwl   = -832.148 E_coul   = 0 E_pair   = -832.148 
E_bond   = 0 E_angle  = 0 E_dihed  = 0 
Lx       = 10.8509 Ly       = 16.282 Lz       = 22.096 
Volume   = 3903.8 Pxx      = -10604 Pyy      = -10849.4 
Pzz      = -24267.6 Pxy      = -15.8706 Pxz      = -37.741 
Pyz      = -57.5578 v_eb     = 0 v_ev     = 0 
v_et     = 0 v_ew     = -832.148 v_ep     = 0 
---------------- Step    87000 ----- CPU =      3.4287 (sec) ----------------
Step     =          87000 CPU      = 3.42871 Temp     =   5.5215001e-06 
Press    = -15287.6 PotEng   = -832.144 KinEng   = 1.36319e-07 
E_vdwl   = -832.144 E_coul   = 0 E_pair   = -832.144 
E_bond   = 0 E_angle  = 0 E_dihed  = 0 
Lx       = 10.8506 Ly       = 16.2817 Lz       = 22.0981 
Volume   = 3903.99 Pxx      = -10617.9 Pyy      = -10870 
Pzz      = -24374.9 Pxy      = -17.6392 Pxz      = -38.9274 
Pyz      = -58.3538 v_eb     = 0 v_ev     = 0 
v_et     = 0 v_ew     = -832.144 v_ep     = 0 
---------------- Step    87500 ----- CPU =      3.5198 (sec) ----------------
Step     =          87500 CPU      = 3.51981 Temp     =   3.8846002e-06 
Press    = -15334.9 PotEng   = -832.139 KinEng   = 9.59057e-08 
E_vdwl   = -832.139 E_coul   = 0 E_pair   = -832.139 
E_bond   = 0 E_angle  = 0 E_dihed  = 0 
Lx       = 10.8503 Ly       = 16.2814 Lz       = 22.1002 
Volume   = 3904.18 Pxx      = -10631.9 Pyy      = -10890.6 
Pzz      = -24482.2 Pxy      = -19.2567 Pxz      = -39.9339 
Pyz      = -59.9273 v_eb     = 0 v_ev     = 0 
v_et     = 0 v_ew     = -832.139 v_ep     = 0 
---------------- Step    88000 ----- CPU =      3.6104 (sec) ----------------
Step     =          88000 CPU      = 3.61038 Temp     =   4.5797466e-06 
Press    = -15382.1 PotEng   = -832.135 KinEng   = 1.13068e-07 
E_vdwl   = -832.135 E_coul   = 0 E_pair   = -832.135 
E_bond   = 0 E_angle  = 0 E_dihed  = 0 
Lx       = 10.85 Ly       = 16.2811 Lz       = 22.1022 
Volume   = 3904.36 Pxx      = -10645.8 Pyy      = -10911.2 
Pzz      = -24589.4 Pxy      = -16.6534 Pxz      = -40.8399 
Pyz      = -62.2365 v_eb     = 0 v_ev     = 0 
v_et     = 0 v_ew     = -832.135 v_ep     = 0 
---------------- Step    88500 ----- CPU =      3.7010 (sec) ----------------
Step     =          88500 CPU      = 3.70103 Temp     =   5.8824474e-06 
Press    = -15429.4 PotEng   = -832.131 KinEng   = 1.4523e-07 
E_vdwl   = -832.131 E_coul   = 0 E_pair   = -832.131 
E_bond   = 0 E_angle  = 0 E_dihed  = 0 
Lx       = 10.8497 Ly       = 16.2808 Lz       = 22.1043 
Volume   = 3904.55 Pxx      = -10659.7 Pyy      = -10931.7 
Pzz      = -24696.7 Pxy      = -20.7479 Pxz      = -42.0138 
Pyz      = -63.0881 v_eb     = 0 v_ev     = 0 
v_et     = 0 v_ew     = -832.131 v_ep     = 0 
---------------- Step    89000 ----- CPU =      3.7963 (sec) ----------------
Step     =          89000 CPU      = 3.79626 Temp     =   4.1906575e-06 
Press    = -15476.6 PotEng   = -832.126 KinEng   = 1.03462e-07 
E_vdwl   = -832.126 E_coul   = 0 E_pair   = -832.126 
E_bond   = 0 E_angle  = 0 E_dihed  = 0 
Lx       = 10.8494 Ly       = 16.2805 Lz       = 22.1064 
Volume   = 3904.74 Pxx      = -10673.6 Pyy      = -10952.2 
Pzz      = -24803.9 Pxy      = -18.6118 Pxz      = -43.0475 
Pyz      = -64.548 v_eb     = 0 v_ev     = 0 
v_et     = 0 v_ew     = -832.126 v_ep     = 0 
---------------- Step    89500 ----- CPU =      3.8873 (sec) ----------------
Step     =          89500 CPU      = 3.88734 Temp     =   4.8140385e-06 
Press    = -15523.8 PotEng   = -832.122 KinEng   = 1.18852e-07 
E_vdwl   = -832.122 E_coul   = 0 E_pair   = -832.122 
E_bond   = 0 E_angle  = 0 E_dihed  = 0 
Lx       = 10.8491 Ly       = 16.2802 Lz       = 22.1085 
Volume   = 3904.93 Pxx      = -10687.5 Pyy      = -10972.8 
Pzz      = -24911.1 Pxy      = -19.5564 Pxz      = -43.9344 
Pyz      = -66.9015 v_eb     = 0 v_ev     = 0 
v_et     = 0 v_ew     = -832.122 v_ep     = 0 
---------------- Step    90000 ----- CPU =      3.9800 (sec) ----------------
Step     =          90000 CPU      = 3.97998 Temp     =   4.6237112e-06 
Press    = -15571 PotEng   = -832.117 KinEng   = 1.14153e-07 
E_vdwl   = -832.117 E_coul   = 0 E_pair   = -832.117 
E_bond   = 0 E_angle  = 0 E_dihed  = 0 
Lx       = 10.8488 Ly       = 16.2799 Lz       = 22.1105 
Volume   = 3905.11 Pxx      = -10701.3 Pyy      = -10993.3 
Pzz      = -25018.4 Pxy      = -21.8658 Pxz      = -45.1066 
Pyz      = -67.8131 v_eb     = 0 v_ev     = 0 
v_et     = 0 v_ew     = -832.117 v_ep     = 0 
---------------- Step    90500 ----- CPU =      4.0720 (sec) ----------------
Step     =          90500 CPU      = 4.07205 Temp     =   4.6366387e-06 
Press    = -15618.2 PotEng   = -832.113 KinEng   = 1.14473e-07 
E_vdwl   = -832.113 E_coul   = 0 E_pair   = -832.113 
E_bond   = 0 E_angle  = 0 E_dihed  = 0 
Lx       = 10.8485 Ly       = 16.2796 Lz       = 22.1126 
Volume   = 3905.3 Pxx      = -10715.2 Pyy      = -11013.7 
Pzz      = -25125.6 Pxy      = -18.9394 Pxz      = -46.155 
Pyz      = -69.1836 v_eb     = 0 v_ev     = 0 
v_et     = 0 v_ew     = -832.113 v_ep     = 0 
---------------- Step    91000 ----- CPU =      4.1634 (sec) ----------------
Step     =          91000 CPU      = 4.16345 Temp     =   4.6524696e-06 
Press    = -15665.3 PotEng   = -832.108 KinEng   = 1.14863e-07 
E_vdwl   = -832.108 E_coul   = 0 E_pair   = -832.108 
E_bond   = 0 E_angle  = 0 E_dihed  = 0 
Lx       = 10.8482 Ly       = 16.2793 Lz       = 22.1147 
Volume   = 3905.49 Pxx      = -10729 Pyy      = -11034.2 
Pzz      = -25232.8 Pxy      = -22.9836 Pxz      = -47.0273 
Pyz      = -71.5617 v_eb     = 0 v_ev     = 0 
v_et     = 0 v_ew     = -832.108 v_ep     = 0 
---------------- Step    91500 ----- CPU =      4.2542 (sec) ----------------
Step     =          91500 CPU      = 4.25425 Temp     =   5.1749637e-06 
Press    = -15712.5 PotEng   = -832.104 KinEng   = 1.27763e-07 
E_vdwl   = -832.104 E_coul   = 0 E_pair   = -832.104 
E_bond   = 0 E_angle  = 0 E_dihed  = 0 
Lx       = 10.8479 Ly       = 16.279 Lz       = 22.1168 
Volume   = 3905.68 Pxx      = -10742.8 Pyy      = -11054.6 
Pzz      = -25340 Pxy      = -21.1033 Pxz      = -48.2069 
Pyz      = -72.5259 v_eb     = 0 v_ev     = 0 
v_et     = 0 v_ew     = -832.104 v_ep     = 0 
---------------- Step    92000 ----- CPU =      4.3455 (sec) ----------------
Step     =          92000 CPU      = 4.34547 Temp     =   4.4895327e-06 
Press    = -15759.6 PotEng   = -832.099 KinEng   = 1.10841e-07 
E_vdwl   = -832.099 E_coul   = 0 E_pair   = -832.099 
E_bond   = 0 E_angle  = 0 E_dihed  = 0 
Lx       = 10.8476 Ly       = 16.2787 Lz       = 22.1188 
Volume   = 3905.86 Pxx      = -10756.6 Pyy      = -11075.1 
Pzz      = -25447.2 Pxy      = -21.7916 Pxz      = -49.252 
Pyz      = -73.8282 v_eb     = 0 v_ev     = 0 
v_et     = 0 v_ew     = -832.099 v_ep     = 0 
---------------- Step    92500 ----- CPU =      4.4362 (sec) ----------------
Step     =          92500 CPU      = 4.43625 Temp     =   5.1663338e-06 
Press    = -15806.8 PotEng   = -832.094 KinEng   = 1.2755e-07 
E_vdwl   = -832.094 E_coul   = 0 E_pair   = -832.094 
E_bond   = 0 E_angle  = 0 E_dihed  = 0 
Lx       = 10.8473 Ly       = 16.2784 Lz       = 22.1209 
Volume   = 3906.05 Pxx      = -10770.4 Pyy      = -11095.5 
Pzz      = -25554.4 Pxy      = -24.2388 Pxz      = -50.1252 
Pyz      = -76.2262 v_eb     = 0 v_ev     = 0 
v_et     = 0 v_ew     = -832.094 v_ep     = 0 
---------------- Step    93000 ----- CPU =      4.5271 (sec) ----------------
Step     =          93000 CPU      = 4.5271 Temp     =   4.4513684e-06 
Press    = -15853.9 PotEng   = -832.09 KinEng   = 1.09898e-07 
E_vdwl   = -832.09 E_coul   = 0 E_pair   = -832.09 
E_bond   = 0 E_angle  = 0 E_dihed  = 0 
Lx       = 10.847 Ly       = 16.2781 Lz       = 22.123 
Volume   = 3906.24 Pxx      = -10784.2 Pyy      = -11115.9 
Pzz      = -25661.6 Pxy      = -21.2732 Pxz      = -51.3073 
Pyz      = -77.2203 v_eb     = 0 v_ev     = 0 
v_et     = 0 v_ew     = -832.09 v_ep     = 0 
---------------- Step    93500 ----- CPU =      4.6179 (sec) ----------------
Step     =          93500 CPU      = 4.61794 Temp     =   5.0879003e-06 
Press    = -15901 PotEng   = -832.085 KinEng   = 1.25614e-07 
E_vdwl   = -832.085 E_coul   = 0 E_pair   = -832.085 
E_bond   = 0 E_angle  = 0 E_dihed  = 0 
Lx       = 10.8467 Ly       = 16.2778 Lz       = 22.1251 
Volume   = 3906.42 Pxx      = -10798 Pyy      = -11136.3 
Pzz      = -25768.8 Pxy      = -25.3759 Pxz      = -52.3432 
Pyz      = -78.4827 v_eb     = 0 v_ev     = 0 
v_et     = 0 v_ew     = -832.085 v_ep     = 0 
---------------- Step    94000 ----- CPU =      4.7098 (sec) ----------------
Step     =          94000 CPU      = 4.70976 Temp     =   5.8283286e-06 
Press    = -15948.1 PotEng   = -832.08 KinEng   = 1.43894e-07 
E_vdwl   = -832.08 E_coul   = 0 E_pair   = -832.08 
E_bond   = 0 E_angle  = 0 E_dihed  = 0 
Lx       = 10.8464 Ly       = 16.2775 Lz       = 22.1271 
Volume   = 3906.61 Pxx      = -10811.7 Pyy      = -11156.6 
Pzz      = -25876 Pxy      = -23.2982 Pxz      = -53.2285 
Pyz      = -80.8983 v_eb     = 0 v_ev     = 0 
v_et     = 0 v_ew     = -832.08 v_ep     = 0 
---------------- Step    94500 ----- CPU =      4.8034 (sec) ----------------
Step     =          94500 CPU      = 4.80342 Temp     =   4.8672704e-06 
Press    = -15995.2 PotEng   = -832.076 KinEng   = 1.20167e-07 
E_vdwl   = -832.076 E_coul   = 0 E_pair   = -832.076 
E_bond   = 0 E_angle  = 0 E_dihed  = 0 
Lx       = 10.8461 Ly       = 16.2772 Lz       = 22.1292 
Volume   = 3906.8 Pxx      = -10825.5 Pyy      = -11177 
Pzz      = -25983.1 Pxy      = -24.346 Pxz      = -54.402 
Pyz      = -81.8915 v_eb     = 0 v_ev     = 0 
v_et     = 0 v_ew     = -832.076 v_ep     = 0 
---------------- Step    95000 ----- CPU =      4.8946 (sec) ----------------
Step     =          95000 CPU      = 4.89464 Temp     =    4.616375e-06 
Press    = -16042.3 PotEng   = -832.071 KinEng   = 1.13972e-07 
E_vdwl   = -832.071 E_coul   = 0 E_pair   = -832.071 
E_bond   = 0 E_angle  = 0 E_dihed  = 0 
Lx       = 10.8458 Ly       = 16.2769 Lz       = 22.1313 
Volume   = 3906.98 Pxx      = -10839.2 Pyy      = -11197.3 
Pzz      = -26090.3 Pxy      = -26.3841 Pxz      = -55.4381 
Pyz      = -83.1523 v_eb     = 0 v_ev     = 0 
v_et     = 0 v_ew     = -832.071 v_ep     = 0 
---------------- Step    95500 ----- CPU =      4.9859 (sec) ----------------
Step     =          95500 CPU      = 4.98591 Temp     =   4.7601941e-06 
Press    = -16089.3 PotEng   = -832.066 KinEng   = 1.17523e-07 
E_vdwl   = -832.066 E_coul   = 0 E_pair   = -832.066 
E_bond   = 0 E_angle  = 0 E_dihed  = 0 
Lx       = 10.8455 Ly       = 16.2766 Lz       = 22.1334 
Volume   = 3907.17 Pxx      = -10852.9 Pyy      = -11217.7 
Pzz      = -26197.5 Pxy      = -23.6665 Pxz      = -56.3273 
Pyz      = -85.5726 v_eb     = 0 v_ev     = 0 
v_et     = 0 v_ew     = -832.066 v_ep     = 0 
---------------- Step    96000 ----- CPU =      5.0775 (sec) ----------------
Step     =          96000 CPU      = 5.07754 Temp     =    4.993787e-06 
Press    = -16136.4 PotEng   = -832.061 KinEng   = 1.2329e-07 
E_vdwl   = -832.061 E_coul   = 0 E_pair   = -832.061 
E_bond   = 0 E_angle  = 0 E_dihed  = 0 
Lx       = 10.8452 Ly       = 16.2763 Lz       = 22.1354 
Volume   = 3907.36 Pxx      = -10866.6 Pyy      = -11238 
Pzz      = -26304.6 Pxy      = -27.8902 Pxz      = -57.4976 
Pyz      = -86.5437 v_eb     = 0 v_ev     = 0 
v_et     = 0 v_ew     = -832.061 v_ep     = 0 
---------------- Step    96500 ----- CPU =      5.1684 (sec) ----------------
Step     =          96500 CPU      = 5.16836 Temp     =   4.7377535e-06 
Press    = -16183.4 PotEng   = -832.057 KinEng   = 1.16969e-07 
E_vdwl   = -832.057 E_coul   = 0 E_pair   = -832.057 
E_bond   = 0 E_angle  = 0 E_dihed  = 0 
Lx       = 10.8449 Ly       = 16.276 Lz       = 22.1375 
Volume   = 3907.55 Pxx      = -10880.3 Pyy      = -11258.2 
Pzz      = -26411.8 Pxy      = -25.2279 Pxz      = -58.5358 
Pyz      = -87.8365 v_eb     = 0 v_ev     = 0 
v_et     = 0 v_ew     = -832.057 v_ep     = 0 
---------------- Step    97000 ----- CPU =      5.2634 (sec) ----------------
Step     =          97000 CPU      = 5.26342 Temp     =   5.2979837e-06 
Press    = -16230.5 PotEng   = -832.052 KinEng   = 1.308e-07 
E_vdwl   = -832.052 E_coul   = 0 E_pair   = -832.052 
E_bond   = 0 E_angle  = 0 E_dihed  = 0 
Lx       = 10.8447 Ly       = 16.2757 Lz       = 22.1396 
Volume   = 3907.73 Pxx      = -10894 Pyy      = -11278.5 
Pzz      = -26518.9 Pxy      = -27.2325 Pxz      = -59.4162 
Pyz      = -90.2445 v_eb     = 0 v_ev     = 0 
v_et     = 0 v_ew     = -832.052 v_ep     = 0 
---------------- Step    97500 ----- CPU =      5.3542 (sec) ----------------
Step     =          97500 CPU      = 5.35425 Temp     =   5.9748099e-06 
Press    = -16277.5 PotEng   = -832.047 KinEng   = 1.4751e-07 
E_vdwl   = -832.047 E_coul   = 0 E_pair   = -832.047 
E_bond   = 0 E_angle  = 0 E_dihed  = 0 
Lx       = 10.8444 Ly       = 16.2754 Lz       = 22.1417 
Volume   = 3907.92 Pxx      = -10907.7 Pyy      = -11298.8 
Pzz      = -26626 Pxy      = -28.2121 Pxz      = -60.6053 
Pyz      = -91.1845 v_eb     = 0 v_ev     = 0 
v_et     = 0 v_ew     = -832.047 v_ep     = 0 
---------------- Step    98000 ----- CPU =      5.4451 (sec) ----------------
Step     =          98000 CPU      = 5.44508 Temp     =   4.5367474e-06 
Press    = -16324.5 PotEng   = -832.042 KinEng   = 1.12006e-07 
E_vdwl   = -832.042 E_coul   = 0 E_pair   = -832.042 
E_bond   = 0 E_angle  = 0 E_dihed  = 0 
Lx       = 10.8441 Ly       = 16.2751 Lz       = 22.1437 
Volume   = 3908.11 Pxx      = -10921.3 Pyy      = -11319 
Pzz      = -26733.2 Pxy      = -26.2853 Pxz      = -61.6224 
Pyz      = -92.5281 v_eb     = 0 v_ev     = 0 
v_et     = 0 v_ew     = -832.042 v_ep     = 0 
---------------- Step    98500 ----- CPU =      5.5362 (sec) ----------------
Step     =          98500 CPU      = 5.53621 Temp     =   4.3072368e-06 
Press    = -16371.5 PotEng   = -832.037 KinEng   = 1.0634e-07 
E_vdwl   = -832.037 E_coul   = 0 E_pair   = -832.037 
E_bond   = 0 E_angle  = 0 E_dihed  = 0 
Lx       = 10.8438 Ly       = 16.2748 Lz       = 22.1458 
Volume   = 3908.29 Pxx      = -10935 Pyy      = -11339.2 
Pzz      = -26840.3 Pxy      = -30.3237 Pxz      = -62.5071 
Pyz      = -94.9189 v_eb     = 0 v_ev     = 0 
v_et     = 0 v_ew     = -832.037 v_ep     = 0 
---------------- Step    99000 ----- CPU =      5.6284 (sec) ----------------
Step     =          99000 CPU      = 5.62838 Temp     =   4.9473248e-06 
Press    = -16418.5 PotEng   = -832.032 KinEng   = 1.22143e-07 
E_vdwl   = -832.032 E_coul   = 0 E_pair   = -832.032 
E_bond   = 0 E_angle  = 0 E_dihed  = 0 
Lx       = 10.8435 Ly       = 16.2745 Lz       = 22.1479 
Volume   = 3908.48 Pxx      = -10948.6 Pyy      = -11359.4 
Pzz      = -26947.4 Pxy      = -27.0619 Pxz      = -63.7194 
Pyz      = -95.8113 v_eb     = 0 v_ev     = 0 
v_et     = 0 v_ew     = -832.032 v_ep     = 0 
---------------- Step    99500 ----- CPU =      5.7195 (sec) ----------------
Step     =          99500 CPU      = 5.71945 Temp     =    4.998422e-06 
Press    = -16465.4 PotEng   = -832.027 KinEng   = 1.23404e-07 
E_vdwl   = -832.027 E_coul   = 0 E_pair   = -832.027 
E_bond   = 0 E_angle  = 0 E_dihed  = 0 
Lx       = 10.8432 Ly       = 16.2742 Lz       = 22.15 
Volume   = 3908.67 Pxx      = -10962.2 Pyy      = -11379.6 
Pzz      = -27054.5 Pxy      = -30.3892 Pxz      = -64.6944 
Pyz      = -97.2275 v_eb     = 0 v_ev     = 0 
v_et     = 0 v_ew     = -832.027 v_ep     = 0 
---------------- Step   100000 ----- CPU =      5.8105 (sec) ----------------
Step     =         100000 CPU      = 5.81047 Temp     =   5.1553359e-06 
Press    = -16512.4 PotEng   = -832.022 KinEng   = 1.27278e-07 
E_vdwl   = -832.022 E_coul   = 0 E_pair   = -832.022 
E_bond   = 0 E_angle  = 0 E_dihed  = 0 
Lx       = 10.8429 Ly       = 16.2739 Lz       = 22.152 
Volume   = 3908.85 Pxx      = -10975.8 Pyy      = -11399.8 
Pzz      = -27161.6 Pxy      = -29.628 Pxz      = -65.6122 
Pyz      = -99.5989 v_eb     = 0 v_ev     = 0 
v_et     = 0 v_ew     = -832.022 v_ep     = 0 
---------------- Step   100500 ----- CPU =      5.9012 (sec) ----------------
Step     =         100500 CPU      = 5.90119 Temp     =   5.6941115e-06 
Press    = -16559.4 PotEng   = -832.017 KinEng   = 1.4058e-07 
E_vdwl   = -832.017 E_coul   = 0 E_pair   = -832.017 
E_bond   = 0 E_angle  = 0 E_dihed  = 0 
Lx       = 10.8426 Ly       = 16.2736 Lz       = 22.1541 
Volume   = 3909.04 Pxx      = -10989.4 Pyy      = -11420 
Pzz      = -27268.7 Pxy      = -29.3859 Pxz      = -66.8227 
Pyz      = -100.415 v_eb     = 0 v_ev     = 0 
v_et     = 0 v_ew     = -832.017 v_ep     = 0 
---------------- Step   101000 ----- CPU =      5.9929 (sec) ----------------
Step     =         101000 CPU      = 5.99295 Temp     =   4.1633947e-06 
Press    = -16606.3 PotEng   = -832.013 KinEng   = 1.02789e-07 
E_vdwl   = -832.013 E_coul   = 0 E_pair   = -832.013 
E_bond   = 0 E_angle  = 0 E_dihed  = 0 
Lx       = 10.8423 Ly       = 16.2733 Lz       = 22.1562 
Volume   = 3909.23 Pxx      = -11003 Pyy      = -11440.1 
Pzz      = -27375.8 Pxy      = -32.304 Pxz      = -67.7686 
Pyz      = -101.949 v_eb     = 0 v_ev     = 0 
v_et     = 0 v_ew     = -832.013 v_ep     = 0 
---------------- Step   101500 ----- CPU =      6.0893 (sec) ----------------
Step     =         101500 CPU      = 6.08933 Temp     =   5.3404442e-06 
Press    = -16653.2 PotEng   = -832.007 KinEng   = 1.31849e-07 
E_vdwl   = -832.007 E_coul   = 0 E_pair   = -832.007 
E_bond   = 0 E_angle  = 0 E_dihed  = 0 
Lx       = 10.842 Ly       = 16.273 Lz       = 22.1583 
Volume   = 3909.41 Pxx      = -11016.5 Pyy      = -11460.2 
Pzz      = -27482.9 Pxy      = -29.2045 Pxz      = -68.7202 
Pyz      = -104.27 v_eb     = 0 v_ev     = 0 
v_et     = 0 v_ew     = -832.007 v_ep     = 0 
---------------- Step   102000 ----- CPU =      6.1811 (sec) ----------------
Step     =         102000 CPU      = 6.18106 Temp     =   4.7974135e-06 
Press    = -16700.1 PotEng   = -832.002 KinEng   = 1.18442e-07 
E_vdwl   = -832.002 E_coul   = 0 E_pair   = -832.002 
E_bond   = 0 E_angle  = 0 E_dihed  = 0 
Lx       = 10.8417 Ly       = 16.2727 Lz       = 22.1603 
Volume   = 3909.6 Pxx      = -11030.1 Pyy      = -11480.3 
Pzz      = -27590 Pxy      = -33.4826 Pxz      = -69.9188 
Pyz      = -105.003 v_eb     = 0 v_ev     = 0 
v_et     = 0 v_ew     = -832.002 v_ep     = 0 
---------------- Step   102500 ----- CPU =      6.2722 (sec) ----------------
Step     =         102500 CPU      = 6.27217 Temp     =   5.6113156e-06 
Press    = -16747 PotEng   = -831.997 KinEng   = 1.38536e-07 
E_vdwl   = -831.997 E_coul   = 0 E_pair   = -831.997 
E_bond   = 0 E_angle  = 0 E_dihed  = 0 
Lx       = 10.8414 Ly       = 16.2724 Lz       = 22.1624 
Volume   = 3909.79 Pxx      = -11043.6 Pyy      = -11500.4 
Pzz      = -27697 Pxy      = -30.7964 Pxz      = -70.8495 
Pyz      = -106.699 v_eb     = 0 v_ev     = 0 
v_et     = 0 v_ew     = -831.997 v_ep     = 0 
---------------- Step   103000 ----- CPU =      6.3640 (sec) ----------------
Step     =         103000 CPU      = 6.36403 Temp     =   5.6206262e-06 
Press    = -16793.9 PotEng   = -831.992 KinEng   = 1.38766e-07 
E_vdwl   = -831.992 E_coul   = 0 E_pair   = -831.992 
E_bond   = 0 E_angle  = 0 E_dihed  = 0 
Lx       = 10.8411 Ly       = 16.2721 Lz       = 22.1645 
Volume   = 3909.97 Pxx      = -11057.1 Pyy      = -11520.5 
Pzz      = -27804.1 Pxy      = -33.043 Pxz      = -71.8191 
Pyz      = -108.915 v_eb     = 0 v_ev     = 0 
v_et     = 0 v_ew     = -831.992 v_ep     = 0 
---------------- Step   103500 ----- CPU =      6.4550 (sec) ----------------
Step     =         103500 CPU      = 6.45505 Temp     =   5.0645347e-06 
Press    = -16840.8 PotEng   = -831.987 KinEng   = 1.25037e-07 
E_vdwl   = -831.987 E_coul   = 0 E_pair   = -831.987 
E_bond   = 0 E_angle  = 0 E_dihed  = 0 
Lx       = 10.8408 Ly       = 16.2718 Lz       = 22.1666 
Volume   = 3910.16 Pxx      = -11070.7 Pyy      = -11540.6 
Pzz      = -27911.2 Pxy      = -33.4912 Pxz      = -73.025 
Pyz      = -109.595 v_eb     = 0 v_ev     = 0 
v_et     = 0 v_ew     = -831.987 v_ep     = 0 
---------------- Step   104000 ----- CPU =      6.5460 (sec) ----------------
Step     =         104000 CPU      = 6.54605 Temp     =   5.6289986e-06 
Press    = -16887.7 PotEng   = -831.982 KinEng   = 1.38973e-07 
E_vdwl   = -831.982 E_coul   = 0 E_pair   = -831.982 
E_bond   = 0 E_angle  = 0 E_dihed  = 0 
Lx       = 10.8405 Ly       = 16.2715 Lz       = 22.1686 
Volume   = 3910.34 Pxx      = -11084.2 Pyy      = -11560.6 
Pzz      = -28018.2 Pxy      = -32.23 Pxz      = -73.9167 
Pyz      = -111.463 v_eb     = 0 v_ev     = 0 
v_et     = 0 v_ew     = -831.982 v_ep     = 0 
---------------- Step   104500 ----- CPU =      6.6370 (sec) ----------------
Step     =         104500 CPU      = 6.63698 Temp     =   5.0450492e-06 
Press    = -16934.5 PotEng   = -831.977 KinEng   = 1.24556e-07 
E_vdwl   = -831.977 E_coul   = 0 E_pair   = -831.977 
E_bond   = 0 E_angle  = 0 E_dihed  = 0 
Lx       = 10.8402 Ly       = 16.2712 Lz       = 22.1707 
Volume   = 3910.53 Pxx      = -11097.6 Pyy      = -11580.7 
Pzz      = -28125.3 Pxy      = -35.7923 Pxz      = -74.9285 
Pyz      = -113.537 v_eb     = 0 v_ev     = 0 
v_et     = 0 v_ew     = -831.977 v_ep     = 0 
---------------- Step   105000 ----- CPU =      6.7278 (sec) ----------------
Step     =         105000 CPU      = 6.72784 Temp     =   5.2090617e-06 
Press    = -16981.4 PotEng   = -831.972 KinEng   = 1.28605e-07 
E_vdwl   = -831.972 E_coul   = 0 E_pair   = -831.972 
E_bond   = 0 E_angle  = 0 E_dihed  = 0 
Lx       = 10.8399 Ly       = 16.2709 Lz       = 22.1728 
Volume   = 3910.72 Pxx      = -11111.1 Pyy      = -11600.7 
Pzz      = -28232.3 Pxy      = -32.4477 Pxz      = -76.1282 
Pyz      = -114.193 v_eb     = 0 v_ev     = 0 
v_et     = 0 v_ew     = -831.972 v_ep     = 0 
---------------- Step   105500 ----- CPU =      6.8193 (sec) ----------------
Step     =         105500 CPU      = 6.81935 Temp     =   5.0303803e-06 
Press    = -17028.2 PotEng   = -831.967 KinEng   = 1.24193e-07 
E_vdwl   = -831.967 E_coul   = 0 E_pair   = -831.967 
E_bond   = 0 E_angle  = 0 E_dihed  = 0 
Lx       = 10.8396 Ly       = 16.2706 Lz       = 22.1749 
Volume   = 3910.9 Pxx      = -11124.6 Pyy      = -11620.7 
Pzz      = -28339.3 Pxy      = -36.6771 Pxz      = -76.9721 
Pyz      = -116.241 v_eb     = 0 v_ev     = 0 
v_et     = 0 v_ew     = -831.967 v_ep     = 0 
---------------- Step   106000 ----- CPU =      6.9187 (sec) ----------------
Step     =         106000 CPU      = 6.91869 Temp     =    5.086618e-06 
Press    = -17075 PotEng   = -831.961 KinEng   = 1.25582e-07 
E_vdwl   = -831.961 E_coul   = 0 E_pair   = -831.961 
E_bond   = 0 E_angle  = 0 E_dihed  = 0 
Lx       = 10.8393 Ly       = 16.2703 Lz       = 22.1769 
Volume   = 3911.09 Pxx      = -11138 Pyy      = -11640.7 
Pzz      = -28446.4 Pxy      = -34.1595 Pxz      = -78.0606 
Pyz      = -118.134 v_eb     = 0 v_ev     = 0 
v_et     = 0 v_ew     = -831.961 v_ep     = 0 
---------------- Step   106500 ----- CPU =      7.0182 (sec) ----------------
Step     =         106500 CPU      = 7.01823 Temp     =   5.9210597e-06 
Press    = -17121.8 PotEng   = -831.956 KinEng   = 1.46183e-07 
E_vdwl   = -831.956 E_coul   = 0 E_pair   = -831.956 
E_bond   = 0 E_angle  = 0 E_dihed  = 0 
Lx       = 10.839 Ly       = 16.27 Lz       = 22.179 
Volume   = 3911.28 Pxx      = -11151.5 Pyy      = -11660.6 
Pzz      = -28553.4 Pxy      = -36.2839 Pxz      = -79.2037 
Pyz      = -118.798 v_eb     = 0 v_ev     = 0 
v_et     = 0 v_ew     = -831.956 v_ep     = 0 
---------------- Step   107000 ----- CPU =      7.1245 (sec) ----------------
Step     =         107000 CPU      = 7.12458 Temp     =   5.7733917e-06 
Press    = -17168.6 PotEng   = -831.951 KinEng   = 1.42537e-07 
E_vdwl   = -831.951 E_coul   = 0 E_pair   = -831.951 
E_bond   = 0 E_angle  = 0 E_dihed  = 0 
Lx       = 10.8387 Ly       = 16.2697 Lz       = 22.1811 
Volume   = 3911.46 Pxx      = -11164.9 Pyy      = -11680.6 
Pzz      = -28660.4 Pxy      = -36.708 Pxz      = -80.0461 
Pyz      = -121.042 v_eb     = 0 v_ev     = 0 
v_et     = 0 v_ew     = -831.951 v_ep     = 0 
---------------- Step   107500 ----- CPU =      7.2498 (sec) ----------------
Step     =         107500 CPU      = 7.24981 Temp     =   5.7445218e-06 
Press    = -17215.4 PotEng   = -831.946 KinEng   = 1.41825e-07 
E_vdwl   = -831.946 E_coul   = 0 E_pair   = -831.946 
E_bond   = 0 E_angle  = 0 E_dihed  = 0 
Lx       = 10.8384 Ly       = 16.2694 Lz       = 22.1832 
Volume   = 3911.65 Pxx      = -11178.3 Pyy      = -11700.5 
Pzz      = -28767.4 Pxy      = -35.616 Pxz      = -81.1875 
Pyz      = -122.683 v_eb     = 0 v_ev     = 0 
v_et     = 0 v_ew     = -831.946 v_ep     = 0 
---------------- Step   108000 ----- CPU =      7.3490 (sec) ----------------
Step     =         108000 CPU      = 7.34901 Temp     =    5.124145e-06 
Press    = -17262.2 PotEng   = -831.94 KinEng   = 1.26508e-07 
E_vdwl   = -831.94 E_coul   = 0 E_pair   = -831.94 
E_bond   = 0 E_angle  = 0 E_dihed  = 0 
Lx       = 10.8381 Ly       = 16.2692 Lz       = 22.1852 
Volume   = 3911.84 Pxx      = -11191.7 Pyy      = -11720.4 
Pzz      = -28874.4 Pxy      = -38.9607 Pxz      = -82.2702 
Pyz      = -123.44 v_eb     = 0 v_ev     = 0 
v_et     = 0 v_ew     = -831.94 v_ep     = 0 
---------------- Step   108500 ----- CPU =      7.4481 (sec) ----------------
Step     =         108500 CPU      = 7.44806 Temp     =   5.2285811e-06 
Press    = -17308.9 PotEng   = -831.935 KinEng   = 1.29087e-07 
E_vdwl   = -831.935 E_coul   = 0 E_pair   = -831.935 
E_bond   = 0 E_angle  = 0 E_dihed  = 0 
Lx       = 10.8378 Ly       = 16.2689 Lz       = 22.1873 
Volume   = 3912.02 Pxx      = -11205.1 Pyy      = -11740.3 
Pzz      = -28981.4 Pxy      = -35.7227 Pxz      = -83.132 
Pyz      = -125.845 v_eb     = 0 v_ev     = 0 
v_et     = 0 v_ew     = -831.935 v_ep     = 0 
---------------- Step   109000 ----- CPU =      7.5470 (sec) ----------------
Step     =         109000 CPU      = 7.54698 Temp     =    5.562075e-06 
Press    = -17355.7 PotEng   = -831.93 KinEng   = 1.3732e-07 
E_vdwl   = -831.93 E_coul   = 0 E_pair   = -831.93 
E_bond   = 0 E_angle  = 0 E_dihed  = 0 
Lx       = 10.8375 Ly       = 16.2686 Lz       = 22.1894 
Volume   = 3912.21 Pxx      = -11218.4 Pyy      = -11760.2 
Pzz      = -29088.4 Pxy      = -40.1213 Pxz      = -84.305 
Pyz      = -127.183 v_eb     = 0 v_ev     = 0 
v_et     = 0 v_ew     = -831.93 v_ep     = 0 
---------------- Step   109500 ----- CPU =      7.6393 (sec) ----------------
Step     =         109500 CPU      = 7.63927 Temp     =   5.3372156e-06 
Press    = -17402.4 PotEng   = -831.924 KinEng   = 1.31769e-07 
E_vdwl   = -831.924 E_coul   = 0 E_pair   = -831.924 
E_bond   = 0 E_angle  = 0 E_dihed  = 0 
Lx       = 10.8372 Ly       = 16.2683 Lz       = 22.1915 
Volume   = 3912.39 Pxx      = -11231.8 Pyy      = -11780.1 
Pzz      = -29195.4 Pxy      = -37.0419 Pxz      = -85.3397 
Pyz      = -128.144 v_eb     = 0 v_ev     = 0 
v_et     = 0 v_ew     = -831.924 v_ep     = 0 
---------------- Step   110000 ----- CPU =      7.7300 (sec) ----------------
Step     =         110000 CPU      = 7.73001 Temp     =   5.0139478e-06 
Press    = -17449.1 PotEng   = -831.919 KinEng   = 1.23788e-07 
E_vdwl   = -831.919 E_coul   = 0 E_pair   = -831.919 
E_bond   = 0 E_angle  = 0 E_dihed  = 0 
Lx       = 10.8369 Ly       = 16.268 Lz       = 22.1935 
Volume   = 3912.58 Pxx      = -11245.1 Pyy      = -11800 
Pzz      = -29302.3 Pxy      = -40.1451 Pxz      = -86.2116 
Pyz      = -130.612 v_eb     = 0 v_ev     = 0 
v_et     = 0 v_ew     = -831.919 v_ep     = 0 
---------------- Step   110500 ----- CPU =      7.8208 (sec) ----------------
Step     =         110500 CPU      = 7.82084 Temp     =   6.7513052e-06 
Press    = -17495.9 PotEng   = -831.913 KinEng   = 1.66681e-07 
E_vdwl   = -831.913 E_coul   = 0 E_pair   = -831.913 
E_bond   = 0 E_angle  = 0 E_dihed  = 0 
Lx       = 10.8366 Ly       = 16.2677 Lz       = 22.1956 
Volume   = 3912.77 Pxx      = -11258.5 Pyy      = -11819.8 
Pzz      = -29409.3 Pxy      = -39.2564 Pxz      = -87.4382 
Pyz      = -131.663 v_eb     = 0 v_ev     = 0 
v_et     = 0 v_ew     = -831.913 v_ep     = 0 
---------------- Step   111000 ----- CPU =      7.9120 (sec) ----------------
Step     =         111000 CPU      = 7.91207 Temp     =    5.534479e-06 
Press    = -17542.6 PotEng   = -831.908 KinEng   = 1.36639e-07 
E_vdwl   = -831.908 E_coul   = 0 E_pair   = -831.908 
E_bond   = 0 E_angle  = 0 E_dihed  = 0 
Lx       = 10.8363 Ly       = 16.2674 Lz       = 22.1977 
Volume   = 3912.95 Pxx      = -11271.8 Pyy      = -11839.6 
Pzz      = -29516.3 Pxy      = -39.6273 Pxz      = -88.3802 
Pyz      = -132.9 v_eb     = 0 v_ev     = 0 
v_et     = 0 v_ew     = -831.908 v_ep     = 0 
---------------- Step   111500 ----- CPU =      8.0045 (sec) ----------------
Step     =         111500 CPU      = 8.00447 Temp     =   5.3423871e-06 
Press    = -17589.2 PotEng   = -831.902 KinEng   = 1.31897e-07 
E_vdwl   = -831.902 E_coul   = 0 E_pair   = -831.902 
E_bond   = 0 E_angle  = 0 E_dihed  = 0 
Lx       = 10.836 Ly       = 16.2671 Lz       = 22.1998 
Volume   = 3913.14 Pxx      = -11285.1 Pyy      = -11859.4 
Pzz      = -29623.2 Pxy      = -41.6093 Pxz      = -89.321 
Pyz      = -135.336 v_eb     = 0 v_ev     = 0 
v_et     = 0 v_ew     = -831.902 v_ep     = 0 
---------------- Step   112000 ----- CPU =      8.0964 (sec) ----------------
Step     =         112000 CPU      = 8.09645 Temp     =   5.1334842e-06 
Press    = -17635.9 PotEng   = -831.897 KinEng   = 1.26739e-07 
E_vdwl   = -831.897 E_coul   = 0 E_pair   = -831.897 
E_bond   = 0 E_angle  = 0 E_dihed  = 0 
Lx       = 10.8357 Ly       = 16.2668 Lz       = 22.2018 
Volume   = 3913.32 Pxx      = -11298.4 Pyy      = -11879.2 
Pzz      = -29730.2 Pxy      = -39.3602 Pxz      = -90.5542 
Pyz      = -136.13 v_eb     = 0 v_ev     = 0 
v_et     = 0 v_ew     = -831.897 v_ep     = 0 
---------------- Step   112500 ----- CPU =      8.1873 (sec) ----------------
Step     =         112500 CPU      = 8.18734 Temp     =   5.3033675e-06 
Press    = -17682.6 PotEng   = -831.892 KinEng   = 1.30933e-07 
E_vdwl   = -831.892 E_coul   = 0 E_pair   = -831.892 
E_bond   = 0 E_angle  = 0 E_dihed  = 0 
Lx       = 10.8354 Ly       = 16.2665 Lz       = 22.2039 
Volume   = 3913.51 Pxx      = -11311.7 Pyy      = -11899 
Pzz      = -29837.1 Pxy      = -43.3878 Pxz      = -91.4109 
Pyz      = -137.721 v_eb     = 0 v_ev     = 0 
v_et     = 0 v_ew     = -831.892 v_ep     = 0 
---------------- Step   113000 ----- CPU =      8.2782 (sec) ----------------
Step     =         113000 CPU      = 8.27818 Temp     =   5.3557455e-06 
Press    = -17729.2 PotEng   = -831.886 KinEng   = 1.32226e-07 
E_vdwl   = -831.886 E_coul   = 0 E_pair   = -831.886 
E_bond   = 0 E_angle  = 0 E_dihed  = 0 
Lx       = 10.8351 Ly       = 16.2662 Lz       = 22.206 
Volume   = 3913.7 Pxx      = -11324.9 Pyy      = -11918.8 
Pzz      = -29944 Pxy      = -39.8899 Pxz      = -92.4626 
Pyz      = -139.989 v_eb     = 0 v_ev     = 0 
v_et     = 0 v_ew     = -831.886 v_ep     = 0 
---------------- Step   113500 ----- CPU =      8.3686 (sec) ----------------
Step     =         113500 CPU      = 8.3686 Temp     =   5.9636829e-06 
Press    = -17775.9 PotEng   = -831.88 KinEng   = 1.47236e-07 
E_vdwl   = -831.88 E_coul   = 0 E_pair   = -831.88 
E_bond   = 0 E_angle  = 0 E_dihed  = 0 
Lx       = 10.8348 Ly       = 16.2659 Lz       = 22.2081 
Volume   = 3913.88 Pxx      = -11338.2 Pyy      = -11938.5 
Pzz      = -30051 Pxy      = -44.2634 Pxz      = -93.6286 
Pyz      = -140.61 v_eb     = 0 v_ev     = 0 
v_et     = 0 v_ew     = -831.88 v_ep     = 0 
---------------- Step   114000 ----- CPU =      8.4613 (sec) ----------------
Step     =         114000 CPU      = 8.46132 Temp     =   5.7700876e-06 
Press    = -17822.5 PotEng   = -831.875 KinEng   = 1.42456e-07 
E_vdwl   = -831.875 E_coul   = 0 E_pair   = -831.875 
E_bond   = 0 E_angle  = 0 E_dihed  = 0 
Lx       = 10.8345 Ly       = 16.2656 Lz       = 22.2101 
Volume   = 3914.07 Pxx      = -11351.4 Pyy      = -11958.2 
Pzz      = -30157.9 Pxy      = -41.3138 Pxz      = -94.4707 
Pyz      = -142.607 v_eb     = 0 v_ev     = 0 
v_et     = 0 v_ew     = -831.875 v_ep     = 0 
---------------- Step   114500 ----- CPU =      8.5530 (sec) ----------------
Step     =         114500 CPU      = 8.55302 Temp     =   4.9760069e-06 
Press    = -17869.1 PotEng   = -831.869 KinEng   = 1.22851e-07 
E_vdwl   = -831.869 E_coul   = 0 E_pair   = -831.869 
E_bond   = 0 E_angle  = 0 E_dihed  = 0 
Lx       = 10.8342 Ly       = 16.2653 Lz       = 22.2122 
Volume   = 3914.25 Pxx      = -11364.6 Pyy      = -11978 
Pzz      = -30264.8 Pxy      = -44.3518 Pxz      = -95.5943 
Pyz      = -144.529 v_eb     = 0 v_ev     = 0 
v_et     = 0 v_ew     = -831.869 v_ep     = 0 
---------------- Step   115000 ----- CPU =      8.6442 (sec) ----------------
Step     =         115000 CPU      = 8.6442 Temp     =   6.3563016e-06 
Press    = -17915.7 PotEng   = -831.864 KinEng   = 1.56929e-07 
E_vdwl   = -831.864 E_coul   = 0 E_pair   = -831.864 
E_bond   = 0 E_angle  = 0 E_dihed  = 0 
Lx       = 10.8339 Ly       = 16.265 Lz       = 22.2143 
Volume   = 3914.44 Pxx      = -11377.9 Pyy      = -11997.7 
Pzz      = -30371.7 Pxy      = -43.3425 Pxz      = -96.6972 
Pyz      = -145.174 v_eb     = 0 v_ev     = 0 
v_et     = 0 v_ew     = -831.864 v_ep     = 0 
---------------- Step   115500 ----- CPU =      8.7357 (sec) ----------------
Step     =         115500 CPU      = 8.73571 Temp     =   6.3572321e-06 
Press    = -17962.3 PotEng   = -831.858 KinEng   = 1.56952e-07 
E_vdwl   = -831.858 E_coul   = 0 E_pair   = -831.858 
E_bond   = 0 E_angle  = 0 E_dihed  = 0 
Lx       = 10.8336 Ly       = 16.2647 Lz       = 22.2164 
Volume   = 3914.62 Pxx      = -11391.1 Pyy      = -12017.3 
Pzz      = -30478.6 Pxy      = -44.0642 Pxz      = -97.532 
Pyz      = -147.493 v_eb     = 0 v_ev     = 0 
v_et     = 0 v_ew     = -831.858 v_ep     = 0 
---------------- Step   116000 ----- CPU =      8.8268 (sec) ----------------
Step     =         116000 CPU      = 8.82684 Temp     =   5.9119327e-06 
Press    = -18008.9 PotEng   = -831.852 KinEng   = 1.45958e-07 
E_vdwl   = -831.852 E_coul   = 0 E_pair   = -831.852 
E_bond   = 0 E_angle  = 0 E_dihed  = 0 
Lx       = 10.8333 Ly       = 16.2644 Lz       = 22.2184 
Volume   = 3914.81 Pxx      = -11404.3 Pyy      = -12037 
Pzz      = -30585.5 Pxy      = -45.5008 Pxz      = -98.7407 
Pyz      = -148.979 v_eb     = 0 v_ev     = 0 
v_et     = 0 v_ew     = -831.852 v_ep     = 0 
---------------- Step   116500 ----- CPU =      8.9185 (sec) ----------------
Step     =         116500 CPU      = 8.9185 Temp     =   5.3546377e-06 
Press    = -18055.5 PotEng   = -831.847 KinEng   = 1.32199e-07 
E_vdwl   = -831.847 E_coul   = 0 E_pair   = -831.847 
E_bond   = 0 E_angle  = 0 E_dihed  = 0 
Lx       = 10.833 Ly       = 16.2641 Lz       = 22.2205 
Volume   = 3915 Pxx      = -11417.4 Pyy      = -12056.7 
Pzz      = -30692.4 Pxy      = -43.883 Pxz      = -99.733 
Pyz      = -149.846 v_eb     = 0 v_ev     = 0 
v_et     = 0 v_ew     = -831.847 v_ep     = 0 
---------------- Step   117000 ----- CPU =      9.0100 (sec) ----------------
Step     =         117000 CPU      = 9.01002 Temp     =   5.0997465e-06 
Press    = -18102.1 PotEng   = -831.841 KinEng   = 1.25906e-07 
E_vdwl   = -831.841 E_coul   = 0 E_pair   = -831.841 
E_bond   = 0 E_angle  = 0 E_dihed  = 0 
Lx       = 10.8327 Ly       = 16.2638 Lz       = 22.2226 
Volume   = 3915.18 Pxx      = -11430.6 Pyy      = -12076.3 
Pzz      = -30799.3 Pxy      = -47.3491 Pxz      = -100.624 
Pyz      = -152.332 v_eb     = 0 v_ev     = 0 
v_et     = 0 v_ew     = -831.841 v_ep     = 0 
---------------- Step   117500 ----- CPU =      9.1018 (sec) ----------------
Step     =         117500 CPU      = 9.10178 Temp     =   4.6180604e-06 
Press    = -18148.6 PotEng   = -831.835 KinEng   = 1.14014e-07 
E_vdwl   = -831.835 E_coul   = 0 E_pair   = -831.835 
E_bond   = 0 E_angle  = 0 E_dihed  = 0 
Lx       = 10.8324 Ly       = 16.2635 Lz       = 22.2247 
Volume   = 3915.37 Pxx      = -11443.8 Pyy      = -12095.9 
Pzz      = -30906.2 Pxy      = -44.1659 Pxz      = -101.88 
Pyz      = -153.371 v_eb     = 0 v_ev     = 0 
v_et     = 0 v_ew     = -831.835 v_ep     = 0 
---------------- Step   118000 ----- CPU =      9.1929 (sec) ----------------
Step     =         118000 CPU      = 9.19288 Temp     =   5.2373395e-06 
Press    = -18195.1 PotEng   = -831.829 KinEng   = 1.29303e-07 
E_vdwl   = -831.829 E_coul   = 0 E_pair   = -831.829 
E_bond   = 0 E_angle  = 0 E_dihed  = 0 
Lx       = 10.8321 Ly       = 16.2632 Lz       = 22.2267 
Volume   = 3915.55 Pxx      = -11456.9 Pyy      = -12115.5 
Pzz      = -31013 Pxy      = -48.6359 Pxz      = -102.738 
Pyz      = -154.639 v_eb     = 0 v_ev     = 0 
v_et     = 0 v_ew     = -831.829 v_ep     = 0 
---------------- Step   118500 ----- CPU =      9.2836 (sec) ----------------
Step     =         118500 CPU      = 9.28361 Temp     =   5.6768998e-06 
Press    = -18241.7 PotEng   = -831.824 KinEng   = 1.40155e-07 
E_vdwl   = -831.824 E_coul   = 0 E_pair   = -831.824 
E_bond   = 0 E_angle  = 0 E_dihed  = 0 
Lx       = 10.8318 Ly       = 16.2629 Lz       = 22.2288 
Volume   = 3915.74 Pxx      = -11470 Pyy      = -12135.1 
Pzz      = -31119.9 Pxy      = -45.0497 Pxz      = -103.775 
Pyz      = -157.074 v_eb     = 0 v_ev     = 0 
v_et     = 0 v_ew     = -831.824 v_ep     = 0 
---------------- Step   119000 ----- CPU =      9.3743 (sec) ----------------
Step     =         119000 CPU      = 9.37426 Temp     =   6.2401644e-06 
Press    = -18288.2 PotEng   = -831.818 KinEng   = 1.54061e-07 
E_vdwl   = -831.818 E_coul   = 0 E_pair   = -831.818 
E_bond   = 0 E_angle  = 0 E_dihed  = 0 
Lx       = 10.8315 Ly       = 16.2626 Lz       = 22.2309 
Volume   = 3915.92 Pxx      = -11483.1 Pyy      = -12154.7 
Pzz      = -31226.7 Pxy      = -49.3336 Pxz      = -104.954 
Pyz      = -157.749 v_eb     = 0 v_ev     = 0 
v_et     = 0 v_ew     = -831.818 v_ep     = 0 
---------------- Step   119500 ----- CPU =      9.4651 (sec) ----------------
Step     =         119500 CPU      = 9.46513 Temp     =   5.7616112e-06 
Press    = -18334.7 PotEng   = -831.812 KinEng   = 1.42247e-07 
E_vdwl   = -831.812 E_coul   = 0 E_pair   = -831.812 
E_bond   = 0 E_angle  = 0 E_dihed  = 0 
Lx       = 10.8312 Ly       = 16.2623 Lz       = 22.233 
Volume   = 3916.11 Pxx      = -11496.2 Pyy      = -12174.2 
Pzz      = -31333.6 Pxy      = -46.4685 Pxz      = -105.781 
Pyz      = -159.565 v_eb     = 0 v_ev     = 0 
v_et     = 0 v_ew     = -831.812 v_ep     = 0 
---------------- Step   120000 ----- CPU =      9.5567 (sec) ----------------
Step     =         120000 CPU      = 9.55671 Temp     =   5.0001746e-06 
Press    = -18381.2 PotEng   = -831.806 KinEng   = 1.23448e-07 
E_vdwl   = -831.806 E_coul   = 0 E_pair   = -831.806 
E_bond   = 0 E_angle  = 0 E_dihed  = 0 
Lx       = 10.8309 Ly       = 16.262 Lz       = 22.235 
Volume   = 3916.29 Pxx      = -11509.3 Pyy      = -12193.8 
Pzz      = -31440.4 Pxy      = -49.5813 Pxz      = -106.921 
Pyz      = -161.636 v_eb     = 0 v_ev     = 0 
v_et     = 0 v_ew     = -831.806 v_ep     = 0 
---------------- Step   120500 ----- CPU =      9.6477 (sec) ----------------
Step     =         120500 CPU      = 9.64767 Temp     =   5.4930784e-06 
Press    = -18427.7 PotEng   = -831.8 KinEng   = 1.35617e-07 
E_vdwl   = -831.8 E_coul   = 0 E_pair   = -831.8 
E_bond   = 0 E_angle  = 0 E_dihed  = 0 
Lx       = 10.8306 Ly       = 16.2617 Lz       = 22.2371 
Volume   = 3916.48 Pxx      = -11522.4 Pyy      = -12213.3 
Pzz      = -31547.3 Pxy      = -48.2315 Pxz      = -108.008 
Pyz      = -162.237 v_eb     = 0 v_ev     = 0 
v_et     = 0 v_ew     = -831.8 v_ep     = 0 
---------------- Step   121000 ----- CPU =      9.7384 (sec) ----------------
Step     =         121000 CPU      = 9.73841 Temp     =   5.4762453e-06 
Press    = -18474.1 PotEng   = -831.795 KinEng   = 1.35201e-07 
E_vdwl   = -831.795 E_coul   = 0 E_pair   = -831.795 
E_bond   = 0 E_angle  = 0 E_dihed  = 0 
Lx       = 10.8303 Ly       = 16.2614 Lz       = 22.2392 
Volume   = 3916.67 Pxx      = -11535.5 Pyy      = -12232.8 
Pzz      = -31654.1 Pxy      = -49.6008 Pxz      = -108.839 
Pyz      = -164.52 v_eb     = 0 v_ev     = 0 
v_et     = 0 v_ew     = -831.795 v_ep     = 0 
---------------- Step   121500 ----- CPU =      9.8293 (sec) ----------------
Step     =         121500 CPU      = 9.82928 Temp     =   5.9619908e-06 
Press    = -18520.6 PotEng   = -831.789 KinEng   = 1.47194e-07 
E_vdwl   = -831.789 E_coul   = 0 E_pair   = -831.789 
E_bond   = 0 E_angle  = 0 E_dihed  = 0 
Lx       = 10.83 Ly       = 16.2611 Lz       = 22.2413 
Volume   = 3916.85 Pxx      = -11548.5 Pyy      = -12252.3 
Pzz      = -31760.9 Pxy      = -50.1045 Pxz      = -110.081 
Pyz      = -166.044 v_eb     = 0 v_ev     = 0 
v_et     = 0 v_ew     = -831.789 v_ep     = 0 
---------------- Step   122000 ----- CPU =      9.9200 (sec) ----------------
Step     =         122000 CPU      = 9.92005 Temp     =    5.140293e-06 
Press    = -18567 PotEng   = -831.783 KinEng   = 1.26907e-07 
E_vdwl   = -831.783 E_coul   = 0 E_pair   = -831.783 
E_bond   = 0 E_angle  = 0 E_dihed  = 0 
Lx       = 10.8297 Ly       = 16.2608 Lz       = 22.2433 
Volume   = 3917.04 Pxx      = -11561.6 Pyy      = -12271.8 
Pzz      = -31867.7 Pxy      = -49.6208 Pxz      = -111.015 
Pyz      = -166.894 v_eb     = 0 v_ev     = 0 
v_et     = 0 v_ew     = -831.783 v_ep     = 0 
---------------- Step   122500 ----- CPU =     10.0214 (sec) ----------------
Step     =         122500 CPU      = 10.0214 Temp     =   5.1668479e-06 
Press    = -18613.5 PotEng   = -831.777 KinEng   = 1.27563e-07 
E_vdwl   = -831.777 E_coul   = 0 E_pair   = -831.777 
E_bond   = 0 E_angle  = 0 E_dihed  = 0 
Lx       = 10.8294 Ly       = 16.2605 Lz       = 22.2454 
Volume   = 3917.22 Pxx      = -11574.6 Pyy      = -12291.2 
Pzz      = -31974.5 Pxy      = -51.88 Pxz      = -111.955 
Pyz      = -169.406 v_eb     = 0 v_ev     = 0 
v_et     = 0 v_ew     = -831.777 v_ep     = 0 
---------------- Step   123000 ----- CPU =     10.1130 (sec) ----------------
Step     =         123000 CPU      = 10.113 Temp     =   5.6029966e-06 
Press    = -18659.9 PotEng   = -831.771 KinEng   = 1.38331e-07 
E_vdwl   = -831.771 E_coul   = 0 E_pair   = -831.771 
E_bond   = 0 E_angle  = 0 E_dihed  = 0 
Lx       = 10.8291 Ly       = 16.2602 Lz       = 22.2475 
Volume   = 3917.41 Pxx      = -11587.6 Pyy      = -12310.7 
Pzz      = -32081.3 Pxy      = -49.8162 Pxz      = -113.205 
Pyz      = -170.36 v_eb     = 0 v_ev     = 0 
v_et     = 0 v_ew     = -831.771 v_ep     = 0 
---------------- Step   123500 ----- CPU =     10.2042 (sec) ----------------
Step     =         123500 CPU      = 10.2042 Temp     =   5.5755352e-06 
Press    = -18706.3 PotEng   = -831.765 KinEng   = 1.37653e-07 
E_vdwl   = -831.765 E_coul   = 0 E_pair   = -831.765 
E_bond   = 0 E_angle  = 0 E_dihed  = 0 
Lx       = 10.8288 Ly       = 16.2599 Lz       = 22.2496 
Volume   = 3917.59 Pxx      = -11600.6 Pyy      = -12330.1 
Pzz      = -32188.1 Pxy      = -53.4233 Pxz      = -114.006 
Pyz      = -171.747 v_eb     = 0 v_ev     = 0 
v_et     = 0 v_ew     = -831.765 v_ep     = 0 
---------------- Step   124000 ----- CPU =     10.2960 (sec) ----------------
Step     =         124000 CPU      = 10.296 Temp     =   6.2882756e-06 
Press    = -18752.7 PotEng   = -831.759 KinEng   = 1.55249e-07 
E_vdwl   = -831.759 E_coul   = 0 E_pair   = -831.759 
E_bond   = 0 E_angle  = 0 E_dihed  = 0 
Lx       = 10.8285 Ly       = 16.2596 Lz       = 22.2516 
Volume   = 3917.78 Pxx      = -11613.6 Pyy      = -12349.5 
Pzz      = -32294.9 Pxy      = -50.279 Pxz      = -115.134 
Pyz      = -174.117 v_eb     = 0 v_ev     = 0 
v_et     = 0 v_ew     = -831.759 v_ep     = 0 
---------------- Step   124500 ----- CPU =     10.3872 (sec) ----------------
Step     =         124500 CPU      = 10.3872 Temp     =   5.6584755e-06 
Press    = -18799.1 PotEng   = -831.753 KinEng   = 1.397e-07 
E_vdwl   = -831.753 E_coul   = 0 E_pair   = -831.753 
E_bond   = 0 E_angle  = 0 E_dihed  = 0 
Lx       = 10.8282 Ly       = 16.2593 Lz       = 22.2537 
Volume   = 3917.96 Pxx      = -11626.6 Pyy      = -12368.9 
Pzz      = -32401.7 Pxy      = -54.6818 Pxz      = -116.242 
Pyz      = -174.701 v_eb     = 0 v_ev     = 0 
v_et     = 0 v_ew     = -831.753 v_ep     = 0 
---------------- Step   125000 ----- CPU =     10.4829 (sec) ----------------
Step     =         125000 CPU      = 10.4829 Temp     =   5.2677457e-06 
Press    = -18845.4 PotEng   = -831.747 KinEng   = 1.30054e-07 
E_vdwl   = -831.747 E_coul   = 0 E_pair   = -831.747 
E_bond   = 0 E_angle  = 0 E_dihed  = 0 
Lx       = 10.8279 Ly       = 16.259 Lz       = 22.2558 
Volume   = 3918.15 Pxx      = -11639.5 Pyy      = -12388.3 
Pzz      = -32508.5 Pxy      = -51.0287 Pxz      = -117.065 
Pyz      = -176.757 v_eb     = 0 v_ev     = 0 
v_et     = 0 v_ew     = -831.747 v_ep     = 0 
---------------- Step   125500 ----- CPU =     10.5736 (sec) ----------------
Step     =         125500 CPU      = 10.5736 Temp     =   5.4082928e-06 
Press    = -18891.8 PotEng   = -831.741 KinEng   = 1.33524e-07 
E_vdwl   = -831.741 E_coul   = 0 E_pair   = -831.741 
E_bond   = 0 E_angle  = 0 E_dihed  = 0 
Lx       = 10.8276 Ly       = 16.2587 Lz       = 22.2579 
Volume   = 3918.33 Pxx      = -11652.5 Pyy      = -12407.7 
Pzz      = -32615.2 Pxy      = -55.6631 Pxz      = -118.291 
Pyz      = -178.565 v_eb     = 0 v_ev     = 0 
v_et     = 0 v_ew     = -831.741 v_ep     = 0 
---------------- Step   126000 ----- CPU =     10.6678 (sec) ----------------
Step     =         126000 CPU      = 10.6678 Temp     =   5.7394473e-06 
Press    = -18938.2 PotEng   = -831.734 KinEng   = 1.41699e-07 
E_vdwl   = -831.734 E_coul   = 0 E_pair   = -831.734 
E_bond   = 0 E_angle  = 0 E_dihed  = 0 
Lx       = 10.8273 Ly       = 16.2584 Lz       = 22.2599 
Volume   = 3918.52 Pxx      = -11665.4 Pyy      = -12427.1 
Pzz      = -32722 Pxy      = -52.0357 Pxz      = -119.253 
Pyz      = -179.255 v_eb     = 0 v_ev     = 0 
v_et     = 0 v_ew     = -831.734 v_ep     = 0 
---------------- Step   126500 ----- CPU =     10.7595 (sec) ----------------
Step     =         126500 CPU      = 10.7595 Temp     =   5.5019666e-06 
Press    = -18984.5 PotEng   = -831.728 KinEng   = 1.35836e-07 
E_vdwl   = -831.728 E_coul   = 0 E_pair   = -831.728 
E_bond   = 0 E_angle  = 0 E_dihed  = 0 
Lx       = 10.827 Ly       = 16.2581 Lz       = 22.262 
Volume   = 3918.7 Pxx      = -11678.4 Pyy      = -12446.4 
Pzz      = -32828.8 Pxy      = -56.4143 Pxz      = -120.163 
Pyz      = -181.728 v_eb     = 0 v_ev     = 0 
v_et     = 0 v_ew     = -831.728 v_ep     = 0 
---------------- Step   127000 ----- CPU =     10.8505 (sec) ----------------
Step     =         127000 CPU      = 10.8505 Temp     =   6.0811126e-06 
Press    = -19030.8 PotEng   = -831.722 KinEng   = 1.50135e-07 
E_vdwl   = -831.722 E_coul   = 0 E_pair   = -831.722 
E_bond   = 0 E_angle  = 0 E_dihed  = 0 
Lx       = 10.8267 Ly       = 16.2578 Lz       = 22.2641 
Volume   = 3918.89 Pxx      = -11691.3 Pyy      = -12465.7 
Pzz      = -32935.5 Pxy      = -53.239 Pxz      = -121.434 
Pyz      = -182.852 v_eb     = 0 v_ev     = 0 
v_et     = 0 v_ew     = -831.722 v_ep     = 0 
---------------- Step   127500 ----- CPU =     10.9415 (sec) ----------------
Step     =         127500 CPU      = 10.9415 Temp     =   5.2759657e-06 
Press    = -19077.1 PotEng   = -831.716 KinEng   = 1.30257e-07 
E_vdwl   = -831.716 E_coul   = 0 E_pair   = -831.716 
E_bond   = 0 E_angle  = 0 E_dihed  = 0 
Lx       = 10.8264 Ly       = 16.2575 Lz       = 22.2662 
Volume   = 3919.07 Pxx      = -11704.2 Pyy      = -12485 
Pzz      = -33042.2 Pxy      = -57.006 Pxz      = -122.221 
Pyz      = -184.062 v_eb     = 0 v_ev     = 0 
v_et     = 0 v_ew     = -831.716 v_ep     = 0 
---------------- Step   128000 ----- CPU =     11.0337 (sec) ----------------
Step     =         128000 CPU      = 11.0338 Temp     =   5.4964646e-06 
Press    = -19123.5 PotEng   = -831.71 KinEng   = 1.357e-07 
E_vdwl   = -831.71 E_coul   = 0 E_pair   = -831.71 
E_bond   = 0 E_angle  = 0 E_dihed  = 0 
Lx       = 10.8261 Ly       = 16.2572 Lz       = 22.2682 
Volume   = 3919.26 Pxx      = -11717.1 Pyy      = -12504.3 
Pzz      = -33149 Pxy      = -54.5638 Pxz      = -123.357 
Pyz      = -186.514 v_eb     = 0 v_ev     = 0 
v_et     = 0 v_ew     = -831.71 v_ep     = 0 
---------------- Step   128500 ----- CPU =     11.1254 (sec) ----------------
Step     =         128500 CPU      = 11.1254 Temp     =   6.5332784e-06 
Press    = -19169.7 PotEng   = -831.704 KinEng   = 1.61298e-07 
E_vdwl   = -831.704 E_coul   = 0 E_pair   = -831.704 
E_bond   = 0 E_angle  = 0 E_dihed  = 0 
Lx       = 10.8258 Ly       = 16.2569 Lz       = 22.2703 
Volume   = 3919.44 Pxx      = -11729.9 Pyy      = -12523.6 
Pzz      = -33255.7 Pxy      = -57.5121 Pxz      = -124.462 
Pyz      = -187.12 v_eb     = 0 v_ev     = 0 
v_et     = 0 v_ew     = -831.704 v_ep     = 0 
---------------- Step   129000 ----- CPU =     11.2164 (sec) ----------------
Step     =         129000 CPU      = 11.2164 Temp     =   6.1996366e-06 
Press    = -19216 PotEng   = -831.697 KinEng   = 1.53061e-07 
E_vdwl   = -831.697 E_coul   = 0 E_pair   = -831.697 
E_bond   = 0 E_angle  = 0 E_dihed  = 0 
Lx       = 10.8255 Ly       = 16.2566 Lz       = 22.2724 
Volume   = 3919.63 Pxx      = -11742.8 Pyy      = -12542.9 
Pzz      = -33362.4 Pxy      = -55.9419 Pxz      = -125.271 
Pyz      = -189.101 v_eb     = 0 v_ev     = 0 
v_et     = 0 v_ew     = -831.697 v_ep     = 0 
---------------- Step   129500 ----- CPU =     11.3070 (sec) ----------------
Step     =         129500 CPU      = 11.307 Temp     =   6.2329959e-06 
Press    = -19262.3 PotEng   = -831.691 KinEng   = 1.53884e-07 
E_vdwl   = -831.691 E_coul   = 0 E_pair   = -831.691 
E_bond   = 0 E_angle  = 0 E_dihed  = 0 
Lx       = 10.8252 Ly       = 16.2563 Lz       = 22.2745 
Volume   = 3919.81 Pxx      = -11755.7 Pyy      = -12562.1 
Pzz      = -33469.1 Pxy      = -57.9916 Pxz      = -126.533 
Pyz      = -190.97 v_eb     = 0 v_ev     = 0 
v_et     = 0 v_ew     = -831.691 v_ep     = 0 
---------------- Step   130000 ----- CPU =     11.3976 (sec) ----------------
Step     =         130000 CPU      = 11.3976 Temp     =   5.7957224e-06 
Press    = -19308.6 PotEng   = -831.685 KinEng   = 1.43089e-07 
E_vdwl   = -831.685 E_coul   = 0 E_pair   = -831.685 
E_bond   = 0 E_angle  = 0 E_dihed  = 0 
Lx       = 10.8249 Ly       = 16.256 Lz       = 22.2765 
Volume   = 3920 Pxx      = -11768.5 Pyy      = -12581.3 
Pzz      = -33575.8 Pxy      = -57.324 Pxz      = -127.44 
Pyz      = -191.628 v_eb     = 0 v_ev     = 0 
v_et     = 0 v_ew     = -831.685 v_ep     = 0 
---------------- Step   130500 ----- CPU =     11.4883 (sec) ----------------
Step     =         130500 CPU      = 11.4883 Temp     =   5.3405636e-06 
Press    = -19354.8 PotEng   = -831.679 KinEng   = 1.31852e-07 
E_vdwl   = -831.679 E_coul   = 0 E_pair   = -831.679 
E_bond   = 0 E_angle  = 0 E_dihed  = 0 
Lx       = 10.8246 Ly       = 16.2557 Lz       = 22.2786 
Volume   = 3920.18 Pxx      = -11781.3 Pyy      = -12600.5 
Pzz      = -33682.5 Pxy      = -58.4856 Pxz      = -128.403 
Pyz      = -194.125 v_eb     = 0 v_ev     = 0 
v_et     = 0 v_ew     = -831.679 v_ep     = 0 
---------------- Step   131000 ----- CPU =     11.5790 (sec) ----------------
Step     =         131000 CPU      = 11.579 Temp     =   5.9210211e-06 
Press    = -19401 PotEng   = -831.672 KinEng   = 1.46182e-07 
E_vdwl   = -831.672 E_coul   = 0 E_pair   = -831.672 
E_bond   = 0 E_angle  = 0 E_dihed  = 0 
Lx       = 10.8243 Ly       = 16.2555 Lz       = 22.2807 
Volume   = 3920.37 Pxx      = -11794.1 Pyy      = -12619.7 
Pzz      = -33789.2 Pxy      = -58.6754 Pxz      = -129.647 
Pyz      = -195.197 v_eb     = 0 v_ev     = 0 
v_et     = 0 v_ew     = -831.672 v_ep     = 0 
---------------- Step   131500 ----- CPU =     11.6700 (sec) ----------------
Step     =         131500 CPU      = 11.67 Temp     =   6.8147382e-06 
Press    = -19447.3 PotEng   = -831.666 KinEng   = 1.68247e-07 
E_vdwl   = -831.666 E_coul   = 0 E_pair   = -831.666 
E_bond   = 0 E_angle  = 0 E_dihed  = 0 
Lx       = 10.824 Ly       = 16.2552 Lz       = 22.2828 
Volume   = 3920.55 Pxx      = -11806.9 Pyy      = -12638.9 
Pzz      = -33895.9 Pxy      = -59.0236 Pxz      = -130.415 
Pyz      = -196.479 v_eb     = 0 v_ev     = 0 
v_et     = 0 v_ew     = -831.666 v_ep     = 0 
---------------- Step   132000 ----- CPU =     11.7617 (sec) ----------------
Step     =         132000 CPU      = 11.7617 Temp     =   6.1849866e-06 
Press    = -19493.5 PotEng   = -831.659 KinEng   = 1.52699e-07 
E_vdwl   = -831.659 E_coul   = 0 E_pair   = -831.659 
E_bond   = 0 E_angle  = 0 E_dihed  = 0 
Lx       = 10.8237 Ly       = 16.2549 Lz       = 22.2848 
Volume   = 3920.74 Pxx      = -11819.7 Pyy      = -12658.1 
Pzz      = -34002.6 Pxy      = -59.9718 Pxz      = -131.606 
Pyz      = -198.884 v_eb     = 0 v_ev     = 0 
v_et     = 0 v_ew     = -831.659 v_ep     = 0 
---------------- Step   132500 ----- CPU =     11.8523 (sec) ----------------
Step     =         132500 CPU      = 11.8523 Temp     =   6.4769971e-06 
Press    = -19539.7 PotEng   = -831.653 KinEng   = 1.59909e-07 
E_vdwl   = -831.653 E_coul   = 0 E_pair   = -831.653 
E_bond   = 0 E_angle  = 0 E_dihed  = 0 
Lx       = 10.8234 Ly       = 16.2546 Lz       = 22.2869 
Volume   = 3920.92 Pxx      = -11832.5 Pyy      = -12677.2 
Pzz      = -34109.3 Pxy      = -59.624 Pxz      = -132.65 
Pyz      = -199.449 v_eb     = 0 v_ev     = 0 
v_et     = 0 v_ew     = -831.653 v_ep     = 0 
---------------- Step   133000 ----- CPU =     11.9433 (sec) ----------------
Step     =         133000 CPU      = 11.9433 Temp     =   6.9185028e-06 
Press    = -19585.9 PotEng   = -831.647 KinEng   = 1.70809e-07 
E_vdwl   = -831.647 E_coul   = 0 E_pair   = -831.647 
E_bond   = 0 E_angle  = 0 E_dihed  = 0 
Lx       = 10.8231 Ly       = 16.2543 Lz       = 22.289 
Volume   = 3921.11 Pxx      = -11845.3 Pyy      = -12696.4 
Pzz      = -34215.9 Pxy      = -61.2016 Pxz      = -133.483 
Pyz      = -201.568 v_eb     = 0 v_ev     = 0 
v_et     = 0 v_ew     = -831.647 v_ep     = 0 
---------------- Step   133274 ----- CPU =     11.9935 (sec) ----------------
Step     =         133274 CPU      = 11.9935 Temp     =   6.6928254e-06 
Press    = -19611.2 PotEng   = -831.643 KinEng   = 1.65237e-07 
E_vdwl   = -831.643 E_coul   = 0 E_pair   = -831.643 
E_bond   = 0 E_angle  = 0 E_dihed  = 0 
Lx       = 10.8229 Ly       = 16.2541 Lz       = 22.2901 
Volume   = 3921.21 Pxx      = -11852.3 Pyy      = -12706.9 
Pzz      = -34274.4 Pxy      = -59.1612 Pxz      = -134.311 
Pyz      = -202.662 v_eb     = 0 v_ev     = 0 
v_et     = 0 v_ew     = -831.643 v_ep     = 0 
Loop time of 11.9935 on 1 procs for 65060 steps with 192 atoms

Performance: 937.372 ns/day, 0.026 hours/ns, 5424.606 timesteps/s
100.0% CPU use with 1 MPI tasks x no OpenMP threads

MPI task timing breakdown:
Section |  min time  |  avg time  |  max time  |%varavg| %total
---------------------------------------------------------------
Pair    | 11.233     | 11.233     | 11.233     |   0.0 | 93.66
Neigh   | 0          | 0          | 0          |   0.0 |  0.00
Comm    | 0.2676     | 0.2676     | 0.2676     |   0.0 |  2.23
Output  | 0.0061982  | 0.0061982  | 0.0061982  |   0.0 |  0.05
Modify  | 0.37908    | 0.37908    | 0.37908    |   0.0 |  3.16
Other   |            | 0.1077     |            |       |  0.90

Nlocal:    192 ave 192 max 192 min
Histogram: 1 0 0 0 0 0 0 0 0 0
Nghost:    932 ave 932 max 932 min
Histogram: 1 0 0 0 0 0 0 0 0 0
Neighs:    0 ave 0 max 0 min
Histogram: 1 0 0 0 0 0 0 0 0 0
FullNghs:  6528 ave 6528 max 6528 min
Histogram: 1 0 0 0 0 0 0 0 0 0

Total # of neighbors = 6528
Ave neighs/atom = 34
Neighbor list builds = 0
Dangerous builds = 0

#  Releasing fix deform constraint
unfix 1

##  Setting 2fs timesteps
##timestep        dts #2.0  #(in wrapper)
#timestep        ${dts} #2.0
#
##  Running a molecular dynamics simulation for relaxation of applied strain
##  during the same amount of time
##run             nts #2000000  #(in wrapper)
#run             ${nts} #2000000

#  Releasing fix constraints
unfix 3
#unfix 4

#  Stopping dump
#undump            atom_dump

# Sample initial state
#variable nss equal ${nssample0}
#fix   shak all shake 0.001 20 1000 m 1.0
#fix   wholevol all nvt temp ${tempt} ${tempt} 100.0
#include ${locbe}/sample.mod.lammps
#unfix wholevol
#unfix shak

#variable tmp equal f_stress[1]
#variable pp11 equal ${tmp}
#variable tmp equal f_stress[2]
#variable pp22 equal ${tmp}
#variable tmp equal f_stress[3]
#variable pp33 equal ${tmp}
#variable tmp equal f_stress[4]
#variable pp12 equal ${tmp}
#variable tmp equal f_stress[5]
#variable pp13 equal ${tmp}
#variable tmp equal f_stress[6]
#variable pp23 equal ${tmp}
write_restart /home/jinzhen/projects/SCEMa/examples/test1/nanoscale_output/last.11.g0_1.dump
write_restart /home/jinzhen/projects/SCEMa/examples/test1/nanoscale_restart/lcts.11.g0_1.dump
Total wall time: 0:00:11
