LAMMPS (17 Nov 2016)
variable mdt string 0
variable loco string /home/jinzhen/projects/SCEMa/examples/test1/nanoscale_log/tmp/2-1.12.0_1
variable locs string ./lammps_scripts_sisw
variable tempt equal 0.010000
# This file is for a LAMMPS simulation created by James Suter
# The system is polyethane, using the CVFF forcefield
# the simulation will heat up to 500K, cooldown to 200K and then perform unixial stretching in the x direction

##  This script should be just run once at the beginning to provide the initial
##  reference testing box, which will the be evolved using the in.lammps.strain
##  input file.

## Should we optimize the lammps call depending on the computer setup?
## suffix OMP

#  Setting units convention for the rest of the file
units           real            # default

#  Setting variables/attributes associated with each atom: charge, bonds, angles,
#  dihedrals, impropers (full)
atom_style      full

#  Setting the dimension of the simulation
dimension       3               # default

#  Setting boundary types in each dimension (periodic)
boundary        p p p

# Choose potential
pair_style	sw

# Setup neighbor style
neighbor 1.0 nsq
neigh_modify once no every 1 delay 0 check yes
read_restart /home/jinzhen/projects/SCEMa/examples/test1/nanoscale_output/last.12.g0_1.dump
  triclinic box = (-0.000949778 -0.00142467 -0.150057) to (10.8609 16.2914 21.8701) with tilt (0 0 0)
  1 by 1 by 1 MPI processor grid
  192 atoms
print 'specifically computed'
specifically computed
variable ll1 equal lx
variable ll2 equal ly
variable ll3 equal lz
variable dts equal 0.002000
variable nts equal 60890
variable ceeps_00 equal -8.768672e-06
variable ceeps_01 equal -1.903627e-07
variable ceeps_02 equal -3.359816e-06
variable ceeps_11 equal -5.814473e-06
variable ceeps_12 equal -4.996883e-06
variable ceeps_22 equal 9.906783e-05
# This file is for a LAMMPS simulation created by James Suter
# The system is polyethane, using the CVFF forcefield
# the simulation will heat up to 500K, cooldown to 200K and then perform unixial stretching in the x direction

## Should we optimize the lammps call depending on the computer setup?
## suffix OMP

pair_coeff * * ${locs}/Si.sw Si
pair_coeff * * ./lammps_scripts_sisw/Si.sw Si
Reading potential file ./lammps_scripts_sisw/Si.sw with DATE: 2007-06-11

variable eb      equal "ebond"
variable ea      equal "epair"
variable ev      equal "eangle"
variable et      equal "edihed"
variable ew      equal "evdwl"
variable ep      equal "ecoul"


##  -------------------------------------------
#   Calculate the stress-strain curve for uniaxial extension in the x direction

#  Setting to display thermodynamical information on the system every 500 steps
thermo          500

#  Setting the type of thermodynamical information to be printed: T, P, energies, dimesions, V, stress tensor
thermo_style    custom step cpu temp press pe ke evdwl ecoul epair ebond eangle edihed lx ly lz vol pxx pyy pzz pxy pxz pyz v_eb v_ev v_et v_ew v_ep

#  Setting the syntax of the printed thermodynamical information
thermo_modify   flush yes line multi format float %g format 3 %15.8g

#  Setting printing position information on all atoms every 5000 steps PE_stress_strain_x.xyz
#  file specifying atom type 1, 2 and 3 with names respectively C, C and H  (identical as
#  previous with different file name)
#dump            atom_dump all atom ${ndump} ${loco}/${mdt}_straining.atom
#dump            xyz_dump all xyz 5000    ${loco}/${mdt}_stress_strain_x.xyz
#dump_modify     xyz_dump element  C C H

#  Printing evolution of stress for comparison
variable pt equal "step"
variable pp equal "press"
variable p0 equal "pxx"
variable p1 equal "pyy"
variable p2 equal "pzz"
variable p10 equal "pxy"
variable p11 equal "pxz"
variable p12 equal "pyz"
variable p3 equal "pe"
variable p4 equal "ke"
variable p5 equal "temp"
variable p6 equal "lx"
variable p7 equal "ly"
variable p8 equal "lz"
variable p9 equal "vol"
variable evdwl equal "evdwl"
variable ecoul equal "ecoul"
variable eatom equal "epair"
variable ebond equal "ebond"
variable eangle equal "eangle"
variable edihed equal "edihed"

#  Storing initial dimensions of the box
variable lx1 equal ${p6}
variable lx1 equal 10.8618995568104
variable ly1 equal ${p7}
variable ly1 equal 16.2928493352156
variable lz1 equal ${p8}
variable lz1 equal 22.0201140172711

#  Compute current stress using sampling over time and fixed NVT conditions
#fix 1e all print 1 "${pt} ${pp} ${p0} ${p1} ${p2} ${p10} ${p11} ${p12} ${p3} ${p4} ${p5} ${p6} ${p7} ${p8} ${p9} ${evdwl} ${ecoul} ${eatom} ${ebond} ${eangle} ${edihed}" file ${loco}/${mdt}_strain_press_evol.dat screen no

#  Setting a Verlet time solution algorithm/integrator
run_style       verlet

#  Loading the same fix 4 as in the init.lammps set of commands.
#fix             4  all shake 0.001 20 1000 m 1.0  # SHAKE to keep bond distances / angles involving H-atoms fixe

#  Setting a global constraint of canonical ensemble on all atoms, the temperature is set constant at 200k
#  with a relaxation time of 100fs
#  > Is this done right, namely sufficiently constrained? Volume is later controlled by the fix deform
#  on all the components of the strain tensor...
#fix             3 all nvt temp 200.0 200.0 100
#fix             3 all langevin 200.0 200.0 100.0 699483
#fix             3 all nvt/sllod temp ${tempt} ${tempt} 100.0
fix             3 all nvt temp ${tempt} ${tempt} 100.0
fix             3 all nvt temp 0.01 ${tempt} 100.0
fix             3 all nvt temp 0.01 0.01 100.0

# Note: these computes are present by default in any input script when using thermo command
#compute thermo_press all temp
#compute thermo_press all pressure thermo_temp

#  Setting a strain constraint every 1 steps in the x-direction on the box at a strain rate of 1e-7 fs-1, position of
#  all atoms positions are remapped following an affine transformation, namely proportional to the box deformation.
##  Is it pertinent to remap the coordinates proportionaly to the applied
##  strains? Should we remap velocities? Or none?
##  This command might be moved to the C++ wrapper file (as well as all the
##  commands that can not be set before, probably just the run command, and
##  maybe timestep for practicality).
#print "${eeps_00} ${eeps_11} ${eeps_22} ${eeps_01} ${eeps_02} ${eeps_12}"
fix             1 all deform 1  x erate ${ceeps_00}                                 y erate ${ceeps_11}                                 z erate ${ceeps_22}                                xy erate ${ceeps_01}                                xz erate ${ceeps_02}                                yz erate ${ceeps_12}                                remap x
fix             1 all deform 1  x erate -8.768672e-06                                 y erate ${ceeps_11}                                 z erate ${ceeps_22}                                xy erate ${ceeps_01}                                xz erate ${ceeps_02}                                yz erate ${ceeps_12}                                remap x
fix             1 all deform 1  x erate -8.768672e-06                                 y erate -5.814473e-06                                 z erate ${ceeps_22}                                xy erate ${ceeps_01}                                xz erate ${ceeps_02}                                yz erate ${ceeps_12}                                remap x
fix             1 all deform 1  x erate -8.768672e-06                                 y erate -5.814473e-06                                 z erate 9.906783e-05                                xy erate ${ceeps_01}                                xz erate ${ceeps_02}                                yz erate ${ceeps_12}                                remap x
fix             1 all deform 1  x erate -8.768672e-06                                 y erate -5.814473e-06                                 z erate 9.906783e-05                                xy erate -1.903627e-07                                xz erate ${ceeps_02}                                yz erate ${ceeps_12}                                remap x
fix             1 all deform 1  x erate -8.768672e-06                                 y erate -5.814473e-06                                 z erate 9.906783e-05                                xy erate -1.903627e-07                                xz erate -3.359816e-06                                yz erate ${ceeps_12}                                remap x
fix             1 all deform 1  x erate -8.768672e-06                                 y erate -5.814473e-06                                 z erate 9.906783e-05                                xy erate -1.903627e-07                                xz erate -3.359816e-06                                yz erate -4.996883e-06                                remap x

#  Setting 2fs timesteps
#timestep        dts #2.0  #(in wrapper)
timestep        ${dts} #2.0
timestep        0.002 

#  Running a molecular dynamics simulation for 2000000 timesteps
#run             nts #2000000  #(in wrapper)
run             ${nts} #2000000
run             60890 
Neighbor list info ...
  1 neighbor list requests
  update every 1 steps, delay 0 steps, check yes
  max neighbors/atom: 2000, page size: 100000
  master list distance cutoff = 5.77118
  ghost atom cutoff = 5.77118
Memory usage per processor = 2.32527 Mbytes
---------------- Step    68214 ----- CPU =      0.0000 (sec) ----------------
Step     =          68214 CPU      = 0 Temp     =   4.1724453e-06 
Press    = -13503.7 PotEng   = -832.293 KinEng   = 1.03012e-07 
E_vdwl   = -832.293 E_coul   = 0 E_pair   = -832.293 
E_bond   = 0 E_angle  = 0 E_dihed  = 0 
Lx       = 10.8619 Ly       = 16.2928 Lz       = 22.0201 
Volume   = 3896.93 Pxx      = -10085.1 Pyy      = -10085.1 
Pzz      = -20341 Pxy      = -1.32971 Pxz      = 0.0535564 
Pyz      = -0.307749 v_eb     = 0 v_ev     = 0 
v_et     = 0 v_ew     = -832.293 v_ep     = 0 
---------------- Step    68500 ----- CPU =      0.0530 (sec) ----------------
Step     =          68500 CPU      = 0.0530002 Temp     =   3.6781921e-06 
Press    = -13550.9 PotEng   = -832.29 KinEng   = 9.08097e-08 
E_vdwl   = -832.29 E_coul   = 0 E_pair   = -832.29 
E_bond   = 0 E_angle  = 0 E_dihed  = 0 
Lx       = 10.8618 Ly       = 16.2928 Lz       = 22.0214 
Volume   = 3897.12 Pxx      = -10116.2 Pyy      = -10117.5 
Pzz      = -20419.1 Pxy      = -1.78459 Pxz      = 1.08543 
Pyz      = 1.67703 v_eb     = 0 v_ev     = 0 
v_et     = 0 v_ew     = -832.29 v_ep     = 0 
---------------- Step    69000 ----- CPU =      0.1474 (sec) ----------------
Step     =          69000 CPU      = 0.147404 Temp     =   5.0041681e-06 
Press    = -13633.7 PotEng   = -832.285 KinEng   = 1.23546e-07 
E_vdwl   = -832.285 E_coul   = 0 E_pair   = -832.285 
E_bond   = 0 E_angle  = 0 E_dihed  = 0 
Lx       = 10.8617 Ly       = 16.2927 Lz       = 22.0235 
Volume   = 3897.45 Pxx      = -10170.9 Pyy      = -10174.3 
Pzz      = -20556.1 Pxy      = 1.55569 Pxz      = 3.0594 
Pyz      = 3.94441 v_eb     = 0 v_ev     = 0 
v_et     = 0 v_ew     = -832.285 v_ep     = 0 
---------------- Step    69500 ----- CPU =      0.2378 (sec) ----------------
Step     =          69500 CPU      = 0.237815 Temp     =   5.1919796e-06 
Press    = -13716.5 PotEng   = -832.281 KinEng   = 1.28183e-07 
E_vdwl   = -832.281 E_coul   = 0 E_pair   = -832.281 
E_bond   = 0 E_angle  = 0 E_dihed  = 0 
Lx       = 10.8617 Ly       = 16.2926 Lz       = 22.0257 
Volume   = 3897.77 Pxx      = -10225.5 Pyy      = -10231 
Pzz      = -20693 Pxy      = 0.432492 Pxz      = 4.85028 
Pyz      = 7.55461 v_eb     = 0 v_ev     = 0 
v_et     = 0 v_ew     = -832.281 v_ep     = 0 
---------------- Step    70000 ----- CPU =      0.3287 (sec) ----------------
Step     =          70000 CPU      = 0.328719 Temp     =   4.2603976e-06 
Press    = -13799.3 PotEng   = -832.276 KinEng   = 1.05184e-07 
E_vdwl   = -832.276 E_coul   = 0 E_pair   = -832.276 
E_bond   = 0 E_angle  = 0 E_dihed  = 0 
Lx       = 10.8616 Ly       = 16.2925 Lz       = 22.0279 
Volume   = 3898.1 Pxx      = -10280.1 Pyy      = -10287.8 
Pzz      = -20830 Pxy      = -1.1909 Pxz      = 6.76261 
Pyz      = 10.43 v_eb     = 0 v_ev     = 0 
v_et     = 0 v_ew     = -832.276 v_ep     = 0 
---------------- Step    70500 ----- CPU =      0.4195 (sec) ----------------
Step     =          70500 CPU      = 0.41951 Temp     =   4.7409686e-06 
Press    = -13882 PotEng   = -832.272 KinEng   = 1.17048e-07 
E_vdwl   = -832.272 E_coul   = 0 E_pair   = -832.272 
E_bond   = 0 E_angle  = 0 E_dihed  = 0 
Lx       = 10.8615 Ly       = 16.2924 Lz       = 22.0301 
Volume   = 3898.43 Pxx      = -10334.7 Pyy      = -10344.5 
Pzz      = -20966.9 Pxy      = 2.27029 Pxz      = 8.77609 
Pyz      = 12.4537 v_eb     = 0 v_ev     = 0 
v_et     = 0 v_ew     = -832.272 v_ep     = 0 
---------------- Step    71000 ----- CPU =      0.5099 (sec) ----------------
Step     =          71000 CPU      = 0.50994 Temp     =   5.1233435e-06 
Press    = -13964.7 PotEng   = -832.267 KinEng   = 1.26489e-07 
E_vdwl   = -832.267 E_coul   = 0 E_pair   = -832.267 
E_bond   = 0 E_angle  = 0 E_dihed  = 0 
Lx       = 10.8614 Ly       = 16.2923 Lz       = 22.0323 
Volume   = 3898.76 Pxx      = -10389.2 Pyy      = -10401.2 
Pzz      = -21103.8 Pxy      = -0.0764569 Pxz      = 10.5946 
Pyz      = 15.8082 v_eb     = 0 v_ev     = 0 
v_et     = 0 v_ew     = -832.267 v_ep     = 0 
---------------- Step    71500 ----- CPU =      0.6007 (sec) ----------------
Step     =          71500 CPU      = 0.60074 Temp     =   4.0783839e-06 
Press    = -14047.4 PotEng   = -832.262 KinEng   = 1.0069e-07 
E_vdwl   = -832.262 E_coul   = 0 E_pair   = -832.262 
E_bond   = 0 E_angle  = 0 E_dihed  = 0 
Lx       = 10.8613 Ly       = 16.2922 Lz       = 22.0345 
Volume   = 3899.09 Pxx      = -10443.7 Pyy      = -10457.8 
Pzz      = -21240.7 Pxy      = -0.222861 Pxz      = 12.4511 
Pyz      = 19.0774 v_eb     = 0 v_ev     = 0 
v_et     = 0 v_ew     = -832.262 v_ep     = 0 
---------------- Step    72000 ----- CPU =      0.6919 (sec) ----------------
Step     =          72000 CPU      = 0.691902 Temp     =   3.9527016e-06 
Press    = -14130.1 PotEng   = -832.257 KinEng   = 9.7587e-08 
E_vdwl   = -832.257 E_coul   = 0 E_pair   = -832.257 
E_bond   = 0 E_angle  = 0 E_dihed  = 0 
Lx       = 10.8612 Ly       = 16.2921 Lz       = 22.0366 
Volume   = 3899.42 Pxx      = -10498.2 Pyy      = -10514.5 
Pzz      = -21377.5 Pxy      = 2.65081 Pxz      = 14.4751 
Pyz      = 21.0664 v_eb     = 0 v_ev     = 0 
v_et     = 0 v_ew     = -832.257 v_ep     = 0 
---------------- Step    72500 ----- CPU =      0.7827 (sec) ----------------
Step     =          72500 CPU      = 0.782665 Temp     =     5.00174e-06 
Press    = -14212.7 PotEng   = -832.253 KinEng   = 1.23486e-07 
E_vdwl   = -832.253 E_coul   = 0 E_pair   = -832.253 
E_bond   = 0 E_angle  = 0 E_dihed  = 0 
Lx       = 10.8611 Ly       = 16.292 Lz       = 22.0388 
Volume   = 3899.75 Pxx      = -10552.7 Pyy      = -10571.1 
Pzz      = -21514.3 Pxy      = -0.55911 Pxz      = 16.3352 
Pyz      = 24.0806 v_eb     = 0 v_ev     = 0 
v_et     = 0 v_ew     = -832.253 v_ep     = 0 
---------------- Step    73000 ----- CPU =      0.8743 (sec) ----------------
Step     =          73000 CPU      = 0.874318 Temp     =   4.1647757e-06 
Press    = -14295.3 PotEng   = -832.248 KinEng   = 1.02823e-07 
E_vdwl   = -832.248 E_coul   = 0 E_pair   = -832.248 
E_bond   = 0 E_angle  = 0 E_dihed  = 0 
Lx       = 10.861 Ly       = 16.2919 Lz       = 22.041 
Volume   = 3900.08 Pxx      = -10607.1 Pyy      = -10627.6 
Pzz      = -21651.1 Pxy      = 1.1135 Pxz      = 18.1525 
Pyz      = 27.6183 v_eb     = 0 v_ev     = 0 
v_et     = 0 v_ew     = -832.248 v_ep     = 0 
---------------- Step    73500 ----- CPU =      0.9700 (sec) ----------------
Step     =          73500 CPU      = 0.969959 Temp     =   4.8431009e-06 
Press    = -14377.9 PotEng   = -832.243 KinEng   = 1.1957e-07 
E_vdwl   = -832.243 E_coul   = 0 E_pair   = -832.243 
E_bond   = 0 E_angle  = 0 E_dihed  = 0 
Lx       = 10.8609 Ly       = 16.2918 Lz       = 22.0432 
Volume   = 3900.41 Pxx      = -10661.5 Pyy      = -10684.2 
Pzz      = -21787.9 Pxy      = 2.45884 Pxz      = 20.1635 
Pyz      = 29.7218 v_eb     = 0 v_ev     = 0 
v_et     = 0 v_ew     = -832.243 v_ep     = 0 
---------------- Step    74000 ----- CPU =      1.0605 (sec) ----------------
Step     =          74000 CPU      = 1.06054 Temp     =   4.2466891e-06 
Press    = -14460.4 PotEng   = -832.238 KinEng   = 1.04845e-07 
E_vdwl   = -832.238 E_coul   = 0 E_pair   = -832.238 
E_bond   = 0 E_angle  = 0 E_dihed  = 0 
Lx       = 10.8608 Ly       = 16.2918 Lz       = 22.0454 
Volume   = 3900.74 Pxx      = -10715.9 Pyy      = -10740.7 
Pzz      = -21924.6 Pxy      = -0.646382 Pxz      = 22.0669 
Pyz      = 32.4081 v_eb     = 0 v_ev     = 0 
v_et     = 0 v_ew     = -832.238 v_ep     = 0 
---------------- Step    74500 ----- CPU =      1.1519 (sec) ----------------
Step     =          74500 CPU      = 1.15188 Temp     =   4.6026318e-06 
Press    = -14542.9 PotEng   = -832.233 KinEng   = 1.13633e-07 
E_vdwl   = -832.233 E_coul   = 0 E_pair   = -832.233 
E_bond   = 0 E_angle  = 0 E_dihed  = 0 
Lx       = 10.8607 Ly       = 16.2917 Lz       = 22.0475 
Volume   = 3901.07 Pxx      = -10770.3 Pyy      = -10797.2 
Pzz      = -22061.3 Pxy      = 2.54979 Pxz      = 23.8633 
Pyz      = 36.0812 v_eb     = 0 v_ev     = 0 
v_et     = 0 v_ew     = -832.233 v_ep     = 0 
---------------- Step    75000 ----- CPU =      1.2436 (sec) ----------------
Step     =          75000 CPU      = 1.24356 Temp     =   4.2307956e-06 
Press    = -14625.4 PotEng   = -832.228 KinEng   = 1.04453e-07 
E_vdwl   = -832.228 E_coul   = 0 E_pair   = -832.228 
E_bond   = 0 E_angle  = 0 E_dihed  = 0 
Lx       = 10.8606 Ly       = 16.2916 Lz       = 22.0497 
Volume   = 3901.4 Pxx      = -10824.6 Pyy      = -10853.7 
Pzz      = -22198 Pxy      = 1.64996 Pxz      = 25.8474 
Pyz      = 38.3728 v_eb     = 0 v_ev     = 0 
v_et     = 0 v_ew     = -832.228 v_ep     = 0 
---------------- Step    75500 ----- CPU =      1.3344 (sec) ----------------
Step     =          75500 CPU      = 1.33437 Temp     =   4.3175306e-06 
Press    = -14707.9 PotEng   = -832.223 KinEng   = 1.06594e-07 
E_vdwl   = -832.223 E_coul   = 0 E_pair   = -832.223 
E_bond   = 0 E_angle  = 0 E_dihed  = 0 
Lx       = 10.8605 Ly       = 16.2915 Lz       = 22.0519 
Volume   = 3901.72 Pxx      = -10878.9 Pyy      = -10910.1 
Pzz      = -22334.7 Pxy      = 0.0613968 Pxz      = 27.7898 
Pyz      = 40.796 v_eb     = 0 v_ev     = 0 
v_et     = 0 v_ew     = -832.223 v_ep     = 0 
---------------- Step    76000 ----- CPU =      1.4254 (sec) ----------------
Step     =          76000 CPU      = 1.42537 Temp     =   4.0663605e-06 
Press    = -14790.3 PotEng   = -832.218 KinEng   = 1.00393e-07 
E_vdwl   = -832.218 E_coul   = 0 E_pair   = -832.218 
E_bond   = 0 E_angle  = 0 E_dihed  = 0 
Lx       = 10.8604 Ly       = 16.2914 Lz       = 22.0541 
Volume   = 3902.05 Pxx      = -10933.2 Pyy      = -10966.5 
Pzz      = -22471.4 Pxy      = 3.52152 Pxz      = 29.5779 
Pyz      = 44.5012 v_eb     = 0 v_ev     = 0 
v_et     = 0 v_ew     = -832.218 v_ep     = 0 
---------------- Step    76500 ----- CPU =      1.5165 (sec) ----------------
Step     =          76500 CPU      = 1.51653 Temp     =   5.6437693e-06 
Press    = -14872.8 PotEng   = -832.213 KinEng   = 1.39337e-07 
E_vdwl   = -832.213 E_coul   = 0 E_pair   = -832.213 
E_bond   = 0 E_angle  = 0 E_dihed  = 0 
Lx       = 10.8603 Ly       = 16.2913 Lz       = 22.0563 
Volume   = 3902.38 Pxx      = -10987.4 Pyy      = -11022.9 
Pzz      = -22608 Pxy      = 0.612681 Pxz      = 31.5312 
Pyz      = 46.9933 v_eb     = 0 v_ev     = 0 
v_et     = 0 v_ew     = -832.213 v_ep     = 0 
---------------- Step    77000 ----- CPU =      1.6080 (sec) ----------------
Step     =          77000 CPU      = 1.60805 Temp     =   5.8781019e-06 
Press    = -14955.1 PotEng   = -832.208 KinEng   = 1.45123e-07 
E_vdwl   = -832.208 E_coul   = 0 E_pair   = -832.208 
E_bond   = 0 E_angle  = 0 E_dihed  = 0 
Lx       = 10.8602 Ly       = 16.2912 Lz       = 22.0584 
Volume   = 3902.71 Pxx      = -11041.6 Pyy      = -11079.2 
Pzz      = -22744.6 Pxy      = 1.64618 Pxz      = 33.5059 
Pyz      = 49.2322 v_eb     = 0 v_ev     = 0 
v_et     = 0 v_ew     = -832.208 v_ep     = 0 
---------------- Step    77500 ----- CPU =      1.6990 (sec) ----------------
Step     =          77500 CPU      = 1.69902 Temp     =   3.8241622e-06 
Press    = -15037.5 PotEng   = -832.203 KinEng   = 9.44135e-08 
E_vdwl   = -832.203 E_coul   = 0 E_pair   = -832.203 
E_bond   = 0 E_angle  = 0 E_dihed  = 0 
Lx       = 10.8601 Ly       = 16.2911 Lz       = 22.0606 
Volume   = 3903.04 Pxx      = -11095.8 Pyy      = -11135.5 
Pzz      = -22881.2 Pxy      = 3.42806 Pxz      = 35.29 
Pyz      = 52.907 v_eb     = 0 v_ev     = 0 
v_et     = 0 v_ew     = -832.203 v_ep     = 0 
---------------- Step    78000 ----- CPU =      1.7895 (sec) ----------------
Step     =          78000 CPU      = 1.78952 Temp     =   5.2948244e-06 
Press    = -15119.8 PotEng   = -832.198 KinEng   = 1.30722e-07 
E_vdwl   = -832.198 E_coul   = 0 E_pair   = -832.198 
E_bond   = 0 E_angle  = 0 E_dihed  = 0 
Lx       = 10.86 Ly       = 16.291 Lz       = 22.0628 
Volume   = 3903.37 Pxx      = -11150 Pyy      = -11191.8 
Pzz      = -23017.7 Pxy      = 0.193986 Pxz      = 37.2184 
Pyz      = 55.5753 v_eb     = 0 v_ev     = 0 
v_et     = 0 v_ew     = -832.198 v_ep     = 0 
---------------- Step    78500 ----- CPU =      1.8800 (sec) ----------------
Step     =          78500 CPU      = 1.87997 Temp     =   4.7118162e-06 
Press    = -15202.2 PotEng   = -832.193 KinEng   = 1.16329e-07 
E_vdwl   = -832.193 E_coul   = 0 E_pair   = -832.193 
E_bond   = 0 E_angle  = 0 E_dihed  = 0 
Lx       = 10.8599 Ly       = 16.2909 Lz       = 22.065 
Volume   = 3903.7 Pxx      = -11204.1 Pyy      = -11248.1 
Pzz      = -23154.2 Pxy      = 3.49078 Pxz      = 39.2164 
Pyz      = 57.6976 v_eb     = 0 v_ev     = 0 
v_et     = 0 v_ew     = -832.193 v_ep     = 0 
---------------- Step    79000 ----- CPU =      1.9710 (sec) ----------------
Step     =          79000 CPU      = 1.97103 Temp     =   4.6454905e-06 
Press    = -15284.4 PotEng   = -832.187 KinEng   = 1.14691e-07 
E_vdwl   = -832.187 E_coul   = 0 E_pair   = -832.187 
E_bond   = 0 E_angle  = 0 E_dihed  = 0 
Lx       = 10.8598 Ly       = 16.2908 Lz       = 22.0672 
Volume   = 3904.03 Pxx      = -11258.2 Pyy      = -11304.4 
Pzz      = -23290.7 Pxy      = 2.23639 Pxz      = 40.9961 
Pyz      = 61.3183 v_eb     = 0 v_ev     = 0 
v_et     = 0 v_ew     = -832.187 v_ep     = 0 
---------------- Step    79500 ----- CPU =      2.0623 (sec) ----------------
Step     =          79500 CPU      = 2.06228 Temp     =   5.5881559e-06 
Press    = -15366.7 PotEng   = -832.182 KinEng   = 1.37964e-07 
E_vdwl   = -832.182 E_coul   = 0 E_pair   = -832.182 
E_bond   = 0 E_angle  = 0 E_dihed  = 0 
Lx       = 10.8597 Ly       = 16.2907 Lz       = 22.0694 
Volume   = 3904.36 Pxx      = -11312.3 Pyy      = -11360.6 
Pzz      = -23427.2 Pxy      = 1.18111 Pxz      = 42.9121 
Pyz      = 64.1212 v_eb     = 0 v_ev     = 0 
v_et     = 0 v_ew     = -832.182 v_ep     = 0 
---------------- Step    80000 ----- CPU =      2.1532 (sec) ----------------
Step     =          80000 CPU      = 2.15322 Temp     =   4.6661856e-06 
Press    = -15448.9 PotEng   = -832.177 KinEng   = 1.15202e-07 
E_vdwl   = -832.177 E_coul   = 0 E_pair   = -832.177 
E_bond   = 0 E_angle  = 0 E_dihed  = 0 
Lx       = 10.8597 Ly       = 16.2906 Lz       = 22.0715 
Volume   = 3904.69 Pxx      = -11366.4 Pyy      = -11416.7 
Pzz      = -23563.7 Pxy      = 4.37267 Pxz      = 44.9201 
Pyz      = 66.1732 v_eb     = 0 v_ev     = 0 
v_et     = 0 v_ew     = -832.177 v_ep     = 0 
---------------- Step    80500 ----- CPU =      2.2434 (sec) ----------------
Step     =          80500 CPU      = 2.24344 Temp     =   4.3287789e-06 
Press    = -15531.1 PotEng   = -832.172 KinEng   = 1.06872e-07 
E_vdwl   = -832.172 E_coul   = 0 E_pair   = -832.172 
E_bond   = 0 E_angle  = 0 E_dihed  = 0 
Lx       = 10.8596 Ly       = 16.2905 Lz       = 22.0737 
Volume   = 3905.01 Pxx      = -11420.4 Pyy      = -11472.9 
Pzz      = -23700.1 Pxy      = 0.98734 Pxz      = 46.6966 
Pyz      = 69.7486 v_eb     = 0 v_ev     = 0 
v_et     = 0 v_ew     = -832.172 v_ep     = 0 
---------------- Step    81000 ----- CPU =      2.3342 (sec) ----------------
Step     =          81000 CPU      = 2.33422 Temp     =   4.6950641e-06 
Press    = -15613.3 PotEng   = -832.166 KinEng   = 1.15915e-07 
E_vdwl   = -832.166 E_coul   = 0 E_pair   = -832.166 
E_bond   = 0 E_angle  = 0 E_dihed  = 0 
Lx       = 10.8595 Ly       = 16.2904 Lz       = 22.0759 
Volume   = 3905.34 Pxx      = -11474.4 Pyy      = -11529 
Pzz      = -23836.5 Pxy      = 3.32344 Pxz      = 48.6121 
Pyz      = 72.635 v_eb     = 0 v_ev     = 0 
v_et     = 0 v_ew     = -832.166 v_ep     = 0 
---------------- Step    81500 ----- CPU =      2.4260 (sec) ----------------
Step     =          81500 CPU      = 2.42604 Temp     =   5.1802108e-06 
Press    = -15695.5 PotEng   = -832.161 KinEng   = 1.27893e-07 
E_vdwl   = -832.161 E_coul   = 0 E_pair   = -832.161 
E_bond   = 0 E_angle  = 0 E_dihed  = 0 
Lx       = 10.8594 Ly       = 16.2903 Lz       = 22.0781 
Volume   = 3905.67 Pxx      = -11528.4 Pyy      = -11585.1 
Pzz      = -23972.9 Pxy      = 3.48541 Pxz      = 50.6153 
Pyz      = 74.6454 v_eb     = 0 v_ev     = 0 
v_et     = 0 v_ew     = -832.161 v_ep     = 0 
---------------- Step    82000 ----- CPU =      2.5165 (sec) ----------------
Step     =          82000 CPU      = 2.5165 Temp     =    4.706892e-06 
Press    = -15777.6 PotEng   = -832.156 KinEng   = 1.16207e-07 
E_vdwl   = -832.156 E_coul   = 0 E_pair   = -832.156 
E_bond   = 0 E_angle  = 0 E_dihed  = 0 
Lx       = 10.8593 Ly       = 16.2902 Lz       = 22.0803 
Volume   = 3906 Pxx      = -11582.3 Pyy      = -11641.2 
Pzz      = -24109.2 Pxy      = 1.28837 Pxz      = 52.3961 
Pyz      = 78.2068 v_eb     = 0 v_ev     = 0 
v_et     = 0 v_ew     = -832.156 v_ep     = 0 
---------------- Step    82500 ----- CPU =      2.6071 (sec) ----------------
Step     =          82500 CPU      = 2.60711 Temp     =   5.2428744e-06 
Press    = -15859.7 PotEng   = -832.15 KinEng   = 1.2944e-07 
E_vdwl   = -832.15 E_coul   = 0 E_pair   = -832.15 
E_bond   = 0 E_angle  = 0 E_dihed  = 0 
Lx       = 10.8592 Ly       = 16.2901 Lz       = 22.0824 
Volume   = 3906.33 Pxx      = -11636.3 Pyy      = -11697.2 
Pzz      = -24245.6 Pxy      = 4.91498 Pxz      = 54.3128 
Pyz      = 81.1167 v_eb     = 0 v_ev     = 0 
v_et     = 0 v_ew     = -832.15 v_ep     = 0 
---------------- Step    83000 ----- CPU =      2.6981 (sec) ----------------
Step     =          83000 CPU      = 2.69809 Temp     =   4.8133089e-06 
Press    = -15941.8 PotEng   = -832.145 KinEng   = 1.18834e-07 
E_vdwl   = -832.145 E_coul   = 0 E_pair   = -832.145 
E_bond   = 0 E_angle  = 0 E_dihed  = 0 
Lx       = 10.8591 Ly       = 16.29 Lz       = 22.0846 
Volume   = 3906.66 Pxx      = -11690.1 Pyy      = -11753.3 
Pzz      = -24381.9 Pxy      = 1.79383 Pxz      = 56.305 
Pyz      = 83.1103 v_eb     = 0 v_ev     = 0 
v_et     = 0 v_ew     = -832.145 v_ep     = 0 
---------------- Step    83500 ----- CPU =      2.7886 (sec) ----------------
Step     =          83500 CPU      = 2.78865 Temp     =    4.698358e-06 
Press    = -16023.8 PotEng   = -832.139 KinEng   = 1.15996e-07 
E_vdwl   = -832.139 E_coul   = 0 E_pair   = -832.139 
E_bond   = 0 E_angle  = 0 E_dihed  = 0 
Lx       = 10.859 Ly       = 16.29 Lz       = 22.0868 
Volume   = 3906.99 Pxx      = -11744 Pyy      = -11809.3 
Pzz      = -24518.2 Pxy      = 3.4932 Pxz      = 58.0965 
Pyz      = 86.6963 v_eb     = 0 v_ev     = 0 
v_et     = 0 v_ew     = -832.139 v_ep     = 0 
---------------- Step    84000 ----- CPU =      2.8792 (sec) ----------------
Step     =          84000 CPU      = 2.87922 Temp     =   4.9760834e-06 
Press    = -16105.8 PotEng   = -832.134 KinEng   = 1.22853e-07 
E_vdwl   = -832.134 E_coul   = 0 E_pair   = -832.134 
E_bond   = 0 E_angle  = 0 E_dihed  = 0 
Lx       = 10.8589 Ly       = 16.2899 Lz       = 22.089 
Volume   = 3907.32 Pxx      = -11797.9 Pyy      = -11865.2 
Pzz      = -24654.4 Pxy      = 4.26771 Pxz      = 60.0079 
Pyz      = 89.5624 v_eb     = 0 v_ev     = 0 
v_et     = 0 v_ew     = -832.134 v_ep     = 0 
---------------- Step    84500 ----- CPU =      2.9709 (sec) ----------------
Step     =          84500 CPU      = 2.97095 Temp     =    4.720416e-06 
Press    = -16187.8 PotEng   = -832.128 KinEng   = 1.16541e-07 
E_vdwl   = -832.128 E_coul   = 0 E_pair   = -832.128 
E_bond   = 0 E_angle  = 0 E_dihed  = 0 
Lx       = 10.8588 Ly       = 16.2898 Lz       = 22.0912 
Volume   = 3907.65 Pxx      = -11851.7 Pyy      = -11921.1 
Pzz      = -24790.6 Pxy      = 1.72073 Pxz      = 61.9976 
Pyz      = 91.5746 v_eb     = 0 v_ev     = 0 
v_et     = 0 v_ew     = -832.128 v_ep     = 0 
---------------- Step    85000 ----- CPU =      3.0624 (sec) ----------------
Step     =          85000 CPU      = 3.06236 Temp     =   4.9583142e-06 
Press    = -16269.8 PotEng   = -832.123 KinEng   = 1.22414e-07 
E_vdwl   = -832.123 E_coul   = 0 E_pair   = -832.123 
E_bond   = 0 E_angle  = 0 E_dihed  = 0 
Lx       = 10.8587 Ly       = 16.2897 Lz       = 22.0934 
Volume   = 3907.97 Pxx      = -11905.5 Pyy      = -11977.1 
Pzz      = -24926.9 Pxy      = 5.43566 Pxz      = 63.7907 
Pyz      = 95.211 v_eb     = 0 v_ev     = 0 
v_et     = 0 v_ew     = -832.123 v_ep     = 0 
---------------- Step    85500 ----- CPU =      3.1540 (sec) ----------------
Step     =          85500 CPU      = 3.15402 Temp     =   5.4314588e-06 
Press    = -16351.7 PotEng   = -832.117 KinEng   = 1.34096e-07 
E_vdwl   = -832.117 E_coul   = 0 E_pair   = -832.117 
E_bond   = 0 E_angle  = 0 E_dihed  = 0 
Lx       = 10.8586 Ly       = 16.2896 Lz       = 22.0955 
Volume   = 3908.3 Pxx      = -11959.2 Pyy      = -12032.9 
Pzz      = -25063 Pxy      = 2.31512 Pxz      = 65.6999 
Pyz      = 97.9707 v_eb     = 0 v_ev     = 0 
v_et     = 0 v_ew     = -832.117 v_ep     = 0 
---------------- Step    86000 ----- CPU =      3.2459 (sec) ----------------
Step     =          86000 CPU      = 3.24593 Temp     =   5.3796607e-06 
Press    = -16433.6 PotEng   = -832.111 KinEng   = 1.32817e-07 
E_vdwl   = -832.111 E_coul   = 0 E_pair   = -832.111 
E_bond   = 0 E_angle  = 0 E_dihed  = 0 
Lx       = 10.8585 Ly       = 16.2895 Lz       = 22.0977 
Volume   = 3908.63 Pxx      = -12013 Pyy      = -12088.8 
Pzz      = -25199.2 Pxy      = 4.10901 Pxz      = 67.6963 
Pyz      = 100.048 v_eb     = 0 v_ev     = 0 
v_et     = 0 v_ew     = -832.111 v_ep     = 0 
---------------- Step    86500 ----- CPU =      3.3370 (sec) ----------------
Step     =          86500 CPU      = 3.33705 Temp     =   4.2470082e-06 
Press    = -16515.5 PotEng   = -832.106 KinEng   = 1.04853e-07 
E_vdwl   = -832.106 E_coul   = 0 E_pair   = -832.106 
E_bond   = 0 E_angle  = 0 E_dihed  = 0 
Lx       = 10.8584 Ly       = 16.2894 Lz       = 22.0999 
Volume   = 3908.96 Pxx      = -12066.7 Pyy      = -12144.6 
Pzz      = -25335.3 Pxy      = 4.63585 Pxz      = 69.4692 
Pyz      = 103.739 v_eb     = 0 v_ev     = 0 
v_et     = 0 v_ew     = -832.106 v_ep     = 0 
---------------- Step    87000 ----- CPU =      3.4284 (sec) ----------------
Step     =          87000 CPU      = 3.42841 Temp     =   5.1085773e-06 
Press    = -16597.4 PotEng   = -832.1 KinEng   = 1.26124e-07 
E_vdwl   = -832.1 E_coul   = 0 E_pair   = -832.1 
E_bond   = 0 E_angle  = 0 E_dihed  = 0 
Lx       = 10.8583 Ly       = 16.2893 Lz       = 22.1021 
Volume   = 3909.29 Pxx      = -12120.4 Pyy      = -12200.4 
Pzz      = -25471.4 Pxy      = 2.36984 Pxz      = 71.4027 
Pyz      = 106.346 v_eb     = 0 v_ev     = 0 
v_et     = 0 v_ew     = -832.1 v_ep     = 0 
---------------- Step    87500 ----- CPU =      3.5194 (sec) ----------------
Step     =          87500 CPU      = 3.5194 Temp     =   4.7405558e-06 
Press    = -16679.2 PotEng   = -832.094 KinEng   = 1.17038e-07 
E_vdwl   = -832.094 E_coul   = 0 E_pair   = -832.094 
E_bond   = 0 E_angle  = 0 E_dihed  = 0 
Lx       = 10.8582 Ly       = 16.2892 Lz       = 22.1043 
Volume   = 3909.62 Pxx      = -12174 Pyy      = -12256.2 
Pzz      = -25607.5 Pxy      = 6.00293 Pxz      = 73.3879 
Pyz      = 108.537 v_eb     = 0 v_ev     = 0 
v_et     = 0 v_ew     = -832.094 v_ep     = 0 
---------------- Step    88000 ----- CPU =      3.6104 (sec) ----------------
Step     =          88000 CPU      = 3.61041 Temp     =   5.3049024e-06 
Press    = -16761 PotEng   = -832.089 KinEng   = 1.30971e-07 
E_vdwl   = -832.089 E_coul   = 0 E_pair   = -832.089 
E_bond   = 0 E_angle  = 0 E_dihed  = 0 
Lx       = 10.8581 Ly       = 16.2891 Lz       = 22.1064 
Volume   = 3909.95 Pxx      = -12227.6 Pyy      = -12311.9 
Pzz      = -25743.6 Pxy      = 2.5487 Pxz      = 75.1388 
Pyz      = 112.273 v_eb     = 0 v_ev     = 0 
v_et     = 0 v_ew     = -832.089 v_ep     = 0 
---------------- Step    88500 ----- CPU =      3.7012 (sec) ----------------
Step     =          88500 CPU      = 3.70117 Temp     =    6.093956e-06 
Press    = -16842.8 PotEng   = -832.083 KinEng   = 1.50452e-07 
E_vdwl   = -832.083 E_coul   = 0 E_pair   = -832.083 
E_bond   = 0 E_angle  = 0 E_dihed  = 0 
Lx       = 10.858 Ly       = 16.289 Lz       = 22.1086 
Volume   = 3910.28 Pxx      = -12281.2 Pyy      = -12367.6 
Pzz      = -25879.6 Pxy      = 5.15625 Pxz      = 77.1205 
Pyz      = 114.687 v_eb     = 0 v_ev     = 0 
v_et     = 0 v_ew     = -832.083 v_ep     = 0 
---------------- Step    89000 ----- CPU =      3.7916 (sec) ----------------
Step     =          89000 CPU      = 3.79157 Temp     =   5.0020377e-06 
Press    = -16924.6 PotEng   = -832.077 KinEng   = 1.23494e-07 
E_vdwl   = -832.077 E_coul   = 0 E_pair   = -832.077 
E_bond   = 0 E_angle  = 0 E_dihed  = 0 
Lx       = 10.8579 Ly       = 16.2889 Lz       = 22.1108 
Volume   = 3910.61 Pxx      = -12334.8 Pyy      = -12423.3 
Pzz      = -26015.6 Pxy      = 4.542 Pxz      = 79.0568 
Pyz      = 117.051 v_eb     = 0 v_ev     = 0 
v_et     = 0 v_ew     = -832.077 v_ep     = 0 
---------------- Step    89500 ----- CPU =      3.8818 (sec) ----------------
Step     =          89500 CPU      = 3.88183 Temp     =   4.9111862e-06 
Press    = -17006.3 PotEng   = -832.071 KinEng   = 1.21251e-07 
E_vdwl   = -832.071 E_coul   = 0 E_pair   = -832.071 
E_bond   = 0 E_angle  = 0 E_dihed  = 0 
Lx       = 10.8578 Ly       = 16.2888 Lz       = 22.113 
Volume   = 3910.93 Pxx      = -12388.4 Pyy      = -12479 
Pzz      = -26151.6 Pxy      = 3.39865 Pxz      = 80.8216 
Pyz      = 120.804 v_eb     = 0 v_ev     = 0 
v_et     = 0 v_ew     = -832.071 v_ep     = 0 
---------------- Step    90000 ----- CPU =      3.9740 (sec) ----------------
Step     =          90000 CPU      = 3.97403 Temp     =   4.9943623e-06 
Press    = -17088 PotEng   = -832.065 KinEng   = 1.23304e-07 
E_vdwl   = -832.065 E_coul   = 0 E_pair   = -832.065 
E_bond   = 0 E_angle  = 0 E_dihed  = 0 
Lx       = 10.8577 Ly       = 16.2887 Lz       = 22.1152 
Volume   = 3911.26 Pxx      = -12441.9 Pyy      = -12534.6 
Pzz      = -26287.6 Pxy      = 6.35084 Pxz      = 82.8329 
Pyz      = 122.987 v_eb     = 0 v_ev     = 0 
v_et     = 0 v_ew     = -832.065 v_ep     = 0 
---------------- Step    90500 ----- CPU =      4.0658 (sec) ----------------
Step     =          90500 CPU      = 4.06578 Temp     =   5.1481343e-06 
Press    = -17169.7 PotEng   = -832.059 KinEng   = 1.27101e-07 
E_vdwl   = -832.059 E_coul   = 0 E_pair   = -832.059 
E_bond   = 0 E_angle  = 0 E_dihed  = 0 
Lx       = 10.8577 Ly       = 16.2886 Lz       = 22.1173 
Volume   = 3911.59 Pxx      = -12495.4 Pyy      = -12590.2 
Pzz      = -26423.5 Pxy      = 2.78521 Pxz      = 84.714 
Pyz      = 125.617 v_eb     = 0 v_ev     = 0 
v_et     = 0 v_ew     = -832.059 v_ep     = 0 
---------------- Step    91000 ----- CPU =      4.1570 (sec) ----------------
Step     =          91000 CPU      = 4.15698 Temp     =   4.8116637e-06 
Press    = -17251.4 PotEng   = -832.053 KinEng   = 1.18794e-07 
E_vdwl   = -832.053 E_coul   = 0 E_pair   = -832.053 
E_bond   = 0 E_angle  = 0 E_dihed  = 0 
Lx       = 10.8576 Ly       = 16.2885 Lz       = 22.1195 
Volume   = 3911.92 Pxx      = -12548.9 Pyy      = -12645.8 
Pzz      = -26559.4 Pxy      = 6.43394 Pxz      = 86.5193 
Pyz      = 129.301 v_eb     = 0 v_ev     = 0 
v_et     = 0 v_ew     = -832.053 v_ep     = 0 
---------------- Step    91500 ----- CPU =      4.2474 (sec) ----------------
Step     =          91500 CPU      = 4.24735 Temp     =    4.909196e-06 
Press    = -17333 PotEng   = -832.048 KinEng   = 1.21202e-07 
E_vdwl   = -832.048 E_coul   = 0 E_pair   = -832.048 
E_bond   = 0 E_angle  = 0 E_dihed  = 0 
Lx       = 10.8575 Ly       = 16.2884 Lz       = 22.1217 
Volume   = 3912.25 Pxx      = -12602.3 Pyy      = -12701.3 
Pzz      = -26695.3 Pxy      = 3.99145 Pxz      = 88.5266 
Pyz      = 131.257 v_eb     = 0 v_ev     = 0 
v_et     = 0 v_ew     = -832.048 v_ep     = 0 
---------------- Step    92000 ----- CPU =      4.3378 (sec) ----------------
Step     =          92000 CPU      = 4.33779 Temp     =   5.3625417e-06 
Press    = -17414.6 PotEng   = -832.042 KinEng   = 1.32394e-07 
E_vdwl   = -832.042 E_coul   = 0 E_pair   = -832.042 
E_bond   = 0 E_angle  = 0 E_dihed  = 0 
Lx       = 10.8574 Ly       = 16.2883 Lz       = 22.1239 
Volume   = 3912.58 Pxx      = -12655.7 Pyy      = -12756.8 
Pzz      = -26831.2 Pxy      = 5.05697 Pxz      = 90.3802 
Pyz      = 134.26 v_eb     = 0 v_ev     = 0 
v_et     = 0 v_ew     = -832.042 v_ep     = 0 
---------------- Step    92500 ----- CPU =      4.4282 (sec) ----------------
Step     =          92500 CPU      = 4.4282 Temp     =   5.3830594e-06 
Press    = -17496.2 PotEng   = -832.035 KinEng   = 1.32901e-07 
E_vdwl   = -832.035 E_coul   = 0 E_pair   = -832.035 
E_bond   = 0 E_angle  = 0 E_dihed  = 0 
Lx       = 10.8573 Ly       = 16.2882 Lz       = 22.1261 
Volume   = 3912.91 Pxx      = -12709.1 Pyy      = -12812.3 
Pzz      = -26967 Pxy      = 5.98317 Pxz      = 92.2091 
Pyz      = 137.708 v_eb     = 0 v_ev     = 0 
v_et     = 0 v_ew     = -832.035 v_ep     = 0 
---------------- Step    93000 ----- CPU =      4.5186 (sec) ----------------
Step     =          93000 CPU      = 4.51861 Temp     =   4.5849934e-06 
Press    = -17577.7 PotEng   = -832.029 KinEng   = 1.13197e-07 
E_vdwl   = -832.029 E_coul   = 0 E_pair   = -832.029 
E_bond   = 0 E_angle  = 0 E_dihed  = 0 
Lx       = 10.8572 Ly       = 16.2882 Lz       = 22.1283 
Volume   = 3913.24 Pxx      = -12762.5 Pyy      = -12867.8 
Pzz      = -27102.8 Pxy      = 3.68923 Pxz      = 94.2226 
Pyz      = 139.556 v_eb     = 0 v_ev     = 0 
v_et     = 0 v_ew     = -832.029 v_ep     = 0 
---------------- Step    93500 ----- CPU =      4.6093 (sec) ----------------
Step     =          93500 CPU      = 4.60934 Temp     =    4.081973e-06 
Press    = -17659.2 PotEng   = -832.023 KinEng   = 1.00779e-07 
E_vdwl   = -832.023 E_coul   = 0 E_pair   = -832.023 
E_bond   = 0 E_angle  = 0 E_dihed  = 0 
Lx       = 10.8571 Ly       = 16.2881 Lz       = 22.1304 
Volume   = 3913.56 Pxx      = -12815.8 Pyy      = -12923.2 
Pzz      = -27238.6 Pxy      = 7.24121 Pxz      = 96.0383 
Pyz      = 142.955 v_eb     = 0 v_ev     = 0 
v_et     = 0 v_ew     = -832.023 v_ep     = 0 
---------------- Step    94000 ----- CPU =      4.6997 (sec) ----------------
Step     =          94000 CPU      = 4.69968 Temp     =   4.7178465e-06 
Press    = -17740.7 PotEng   = -832.017 KinEng   = 1.16477e-07 
E_vdwl   = -832.017 E_coul   = 0 E_pair   = -832.017 
E_bond   = 0 E_angle  = 0 E_dihed  = 0 
Lx       = 10.857 Ly       = 16.288 Lz       = 22.1326 
Volume   = 3913.89 Pxx      = -12869.1 Pyy      = -12978.6 
Pzz      = -27374.4 Pxy      = 3.56111 Pxz      = 97.9012 
Pyz      = 145.998 v_eb     = 0 v_ev     = 0 
v_et     = 0 v_ew     = -832.017 v_ep     = 0 
---------------- Step    94500 ----- CPU =      4.7904 (sec) ----------------
Step     =          94500 CPU      = 4.79038 Temp     =   4.7074443e-06 
Press    = -17822.2 PotEng   = -832.011 KinEng   = 1.16221e-07 
E_vdwl   = -832.011 E_coul   = 0 E_pair   = -832.011 
E_bond   = 0 E_angle  = 0 E_dihed  = 0 
Lx       = 10.8569 Ly       = 16.2879 Lz       = 22.1348 
Volume   = 3914.22 Pxx      = -12922.4 Pyy      = -13034 
Pzz      = -27510.1 Pxy      = 7.04893 Pxz      = 99.9218 
Pyz      = 147.949 v_eb     = 0 v_ev     = 0 
v_et     = 0 v_ew     = -832.011 v_ep     = 0 
---------------- Step    95000 ----- CPU =      4.8852 (sec) ----------------
Step     =          95000 CPU      = 4.88523 Temp     =   5.1679432e-06 
Press    = -17903.6 PotEng   = -832.005 KinEng   = 1.2759e-07 
E_vdwl   = -832.005 E_coul   = 0 E_pair   = -832.005 
E_bond   = 0 E_angle  = 0 E_dihed  = 0 
Lx       = 10.8568 Ly       = 16.2878 Lz       = 22.137 
Volume   = 3914.55 Pxx      = -12975.7 Pyy      = -13089.4 
Pzz      = -27645.8 Pxy      = 4.79214 Pxz      = 101.672 
Pyz      = 151.638 v_eb     = 0 v_ev     = 0 
v_et     = 0 v_ew     = -832.005 v_ep     = 0 
---------------- Step    95500 ----- CPU =      4.9762 (sec) ----------------
Step     =          95500 CPU      = 4.97619 Temp     =   5.8794435e-06 
Press    = -17985 PotEng   = -831.999 KinEng   = 1.45156e-07 
E_vdwl   = -831.999 E_coul   = 0 E_pair   = -831.999 
E_bond   = 0 E_angle  = 0 E_dihed  = 0 
Lx       = 10.8567 Ly       = 16.2877 Lz       = 22.1392 
Volume   = 3914.88 Pxx      = -13028.9 Pyy      = -13144.7 
Pzz      = -27781.5 Pxy      = 5.83369 Pxz      = 103.629 
Pyz      = 154.191 v_eb     = 0 v_ev     = 0 
v_et     = 0 v_ew     = -831.999 v_ep     = 0 
---------------- Step    96000 ----- CPU =      5.0673 (sec) ----------------
Step     =          96000 CPU      = 5.06731 Temp     =    5.399691e-06 
Press    = -18066.4 PotEng   = -831.992 KinEng   = 1.33311e-07 
E_vdwl   = -831.992 E_coul   = 0 E_pair   = -831.992 
E_bond   = 0 E_angle  = 0 E_dihed  = 0 
Lx       = 10.8566 Ly       = 16.2876 Lz       = 22.1413 
Volume   = 3915.21 Pxx      = -13082.1 Pyy      = -13200 
Pzz      = -27917.2 Pxy      = 6.5578 Pxz      = 105.577 
Pyz      = 156.471 v_eb     = 0 v_ev     = 0 
v_et     = 0 v_ew     = -831.992 v_ep     = 0 
---------------- Step    96500 ----- CPU =      5.1589 (sec) ----------------
Step     =          96500 CPU      = 5.15887 Temp     =   4.9344527e-06 
Press    = -18147.8 PotEng   = -831.986 KinEng   = 1.21825e-07 
E_vdwl   = -831.986 E_coul   = 0 E_pair   = -831.986 
E_bond   = 0 E_angle  = 0 E_dihed  = 0 
Lx       = 10.8565 Ly       = 16.2875 Lz       = 22.1435 
Volume   = 3915.54 Pxx      = -13135.3 Pyy      = -13255.3 
Pzz      = -28052.8 Pxy      = 4.61518 Pxz      = 107.33 
Pyz      = 160.246 v_eb     = 0 v_ev     = 0 
v_et     = 0 v_ew     = -831.986 v_ep     = 0 
---------------- Step    97000 ----- CPU =      5.2503 (sec) ----------------
Step     =          97000 CPU      = 5.25031 Temp     =   4.4522812e-06 
Press    = -18229.1 PotEng   = -831.98 KinEng   = 1.09921e-07 
E_vdwl   = -831.98 E_coul   = 0 E_pair   = -831.98 
E_bond   = 0 E_angle  = 0 E_dihed  = 0 
Lx       = 10.8564 Ly       = 16.2874 Lz       = 22.1457 
Volume   = 3915.86 Pxx      = -13188.4 Pyy      = -13310.5 
Pzz      = -28188.5 Pxy      = 7.84897 Pxz      = 109.357 
Pyz      = 162.324 v_eb     = 0 v_ev     = 0 
v_et     = 0 v_ew     = -831.98 v_ep     = 0 
---------------- Step    97500 ----- CPU =      5.3416 (sec) ----------------
Step     =          97500 CPU      = 5.34164 Temp     =   5.0056916e-06 
Press    = -18310.5 PotEng   = -831.974 KinEng   = 1.23584e-07 
E_vdwl   = -831.974 E_coul   = 0 E_pair   = -831.974 
E_bond   = 0 E_angle  = 0 E_dihed  = 0 
Lx       = 10.8563 Ly       = 16.2873 Lz       = 22.1479 
Volume   = 3916.19 Pxx      = -13241.6 Pyy      = -13365.7 
Pzz      = -28324.1 Pxy      = 4.22236 Pxz      = 111.198 
Pyz      = 165.153 v_eb     = 0 v_ev     = 0 
v_et     = 0 v_ew     = -831.974 v_ep     = 0 
---------------- Step    98000 ----- CPU =      5.4327 (sec) ----------------
Step     =          98000 CPU      = 5.4327 Temp     =   5.5856624e-06 
Press    = -18391.7 PotEng   = -831.967 KinEng   = 1.37903e-07 
E_vdwl   = -831.967 E_coul   = 0 E_pair   = -831.967 
E_bond   = 0 E_angle  = 0 E_dihed  = 0 
Lx       = 10.8562 Ly       = 16.2872 Lz       = 22.1501 
Volume   = 3916.52 Pxx      = -13294.7 Pyy      = -13420.9 
Pzz      = -28459.6 Pxy      = 8.12563 Pxz      = 113.035 
Pyz      = 168.687 v_eb     = 0 v_ev     = 0 
v_et     = 0 v_ew     = -831.967 v_ep     = 0 
---------------- Step    98500 ----- CPU =      5.5251 (sec) ----------------
Step     =          98500 CPU      = 5.52506 Temp     =   4.8745623e-06 
Press    = -18473 PotEng   = -831.961 KinEng   = 1.20347e-07 
E_vdwl   = -831.961 E_coul   = 0 E_pair   = -831.961 
E_bond   = 0 E_angle  = 0 E_dihed  = 0 
Lx       = 10.8561 Ly       = 16.2871 Lz       = 22.1523 
Volume   = 3916.85 Pxx      = -13347.7 Pyy      = -13476.1 
Pzz      = -28595.2 Pxy      = 4.86565 Pxz      = 115.041 
Pyz      = 170.499 v_eb     = 0 v_ev     = 0 
v_et     = 0 v_ew     = -831.961 v_ep     = 0 
---------------- Step    99000 ----- CPU =      5.6177 (sec) ----------------
Step     =          99000 CPU      = 5.6177 Temp     =   5.5492658e-06 
Press    = -18554.2 PotEng   = -831.954 KinEng   = 1.37004e-07 
E_vdwl   = -831.954 E_coul   = 0 E_pair   = -831.954 
E_bond   = 0 E_angle  = 0 E_dihed  = 0 
Lx       = 10.856 Ly       = 16.287 Lz       = 22.1544 
Volume   = 3917.18 Pxx      = -13400.8 Pyy      = -13531.2 
Pzz      = -28730.7 Pxy      = 7.4872 Pxz      = 116.84 
Pyz      = 173.963 v_eb     = 0 v_ev     = 0 
v_et     = 0 v_ew     = -831.954 v_ep     = 0 
---------------- Step    99500 ----- CPU =      5.7111 (sec) ----------------
Step     =          99500 CPU      = 5.71114 Temp     =   5.1770652e-06 
Press    = -18635.4 PotEng   = -831.948 KinEng   = 1.27815e-07 
E_vdwl   = -831.948 E_coul   = 0 E_pair   = -831.948 
E_bond   = 0 E_angle  = 0 E_dihed  = 0 
Lx       = 10.8559 Ly       = 16.2869 Lz       = 22.1566 
Volume   = 3917.51 Pxx      = -13453.8 Pyy      = -13586.3 
Pzz      = -28866.2 Pxy      = 6.19899 Pxz      = 118.735 
Pyz      = 176.871 v_eb     = 0 v_ev     = 0 
v_et     = 0 v_ew     = -831.948 v_ep     = 0 
---------------- Step   100000 ----- CPU =      5.8016 (sec) ----------------
Step     =         100000 CPU      = 5.8016 Temp     =   5.4068966e-06 
Press    = -18716.6 PotEng   = -831.941 KinEng   = 1.33489e-07 
E_vdwl   = -831.941 E_coul   = 0 E_pair   = -831.941 
E_bond   = 0 E_angle  = 0 E_dihed  = 0 
Lx       = 10.8558 Ly       = 16.2868 Lz       = 22.1588 
Volume   = 3917.84 Pxx      = -13506.8 Pyy      = -13641.4 
Pzz      = -29001.7 Pxy      = 6.44005 Pxz      = 120.715 
Pyz      = 178.902 v_eb     = 0 v_ev     = 0 
v_et     = 0 v_ew     = -831.941 v_ep     = 0 
---------------- Step   100500 ----- CPU =      5.8920 (sec) ----------------
Step     =         100500 CPU      = 5.89197 Temp     =   5.1287702e-06 
Press    = -18797.8 PotEng   = -831.935 KinEng   = 1.26623e-07 
E_vdwl   = -831.935 E_coul   = 0 E_pair   = -831.935 
E_bond   = 0 E_angle  = 0 E_dihed  = 0 
Lx       = 10.8557 Ly       = 16.2867 Lz       = 22.161 
Volume   = 3918.16 Pxx      = -13559.8 Pyy      = -13696.5 
Pzz      = -29137.1 Pxy      = 7.6463 Pxz      = 122.475 
Pyz      = 182.706 v_eb     = 0 v_ev     = 0 
v_et     = 0 v_ew     = -831.935 v_ep     = 0 
---------------- Step   101000 ----- CPU =      5.9825 (sec) ----------------
Step     =         101000 CPU      = 5.98254 Temp     =   4.9483419e-06 
Press    = -18878.9 PotEng   = -831.928 KinEng   = 1.22168e-07 
E_vdwl   = -831.928 E_coul   = 0 E_pair   = -831.928 
E_bond   = 0 E_angle  = 0 E_dihed  = 0 
Lx       = 10.8557 Ly       = 16.2866 Lz       = 22.1632 
Volume   = 3918.49 Pxx      = -13612.7 Pyy      = -13751.5 
Pzz      = -29272.5 Pxy      = 5.54892 Pxz      = 124.457 
Pyz      = 184.897 v_eb     = 0 v_ev     = 0 
v_et     = 0 v_ew     = -831.928 v_ep     = 0 
---------------- Step   101500 ----- CPU =      6.0735 (sec) ----------------
Step     =         101500 CPU      = 6.07346 Temp     =   4.9415857e-06 
Press    = -18960 PotEng   = -831.922 KinEng   = 1.22001e-07 
E_vdwl   = -831.922 E_coul   = 0 E_pair   = -831.922 
E_bond   = 0 E_angle  = 0 E_dihed  = 0 
Lx       = 10.8556 Ly       = 16.2865 Lz       = 22.1653 
Volume   = 3918.82 Pxx      = -13665.6 Pyy      = -13806.5 
Pzz      = -29407.9 Pxy      = 8.71754 Pxz      = 126.353 
Pyz      = 187.598 v_eb     = 0 v_ev     = 0 
v_et     = 0 v_ew     = -831.922 v_ep     = 0 
---------------- Step   102000 ----- CPU =      6.1645 (sec) ----------------
Step     =         102000 CPU      = 6.16451 Temp     =   5.4466721e-06 
Press    = -19041.1 PotEng   = -831.915 KinEng   = 1.34471e-07 
E_vdwl   = -831.915 E_coul   = 0 E_pair   = -831.915 
E_bond   = 0 E_angle  = 0 E_dihed  = 0 
Lx       = 10.8555 Ly       = 16.2864 Lz       = 22.1675 
Volume   = 3919.15 Pxx      = -13718.5 Pyy      = -13861.5 
Pzz      = -29543.3 Pxy      = 5.18703 Pxz      = 128.134 
Pyz      = 191.175 v_eb     = 0 v_ev     = 0 
v_et     = 0 v_ew     = -831.915 v_ep     = 0 
---------------- Step   102500 ----- CPU =      6.2550 (sec) ----------------
Step     =         102500 CPU      = 6.25501 Temp     =   4.8923828e-06 
Press    = -19122.1 PotEng   = -831.909 KinEng   = 1.20787e-07 
E_vdwl   = -831.909 E_coul   = 0 E_pair   = -831.909 
E_bond   = 0 E_angle  = 0 E_dihed  = 0 
Lx       = 10.8554 Ly       = 16.2864 Lz       = 22.1697 
Volume   = 3919.48 Pxx      = -13771.4 Pyy      = -13916.4 
Pzz      = -29678.6 Pxy      = 9.17721 Pxz      = 130.184 
Pyz      = 192.999 v_eb     = 0 v_ev     = 0 
v_et     = 0 v_ew     = -831.909 v_ep     = 0 
---------------- Step   103000 ----- CPU =      6.3466 (sec) ----------------
Step     =         103000 CPU      = 6.34659 Temp     =   4.6216234e-06 
Press    = -19203.2 PotEng   = -831.902 KinEng   = 1.14102e-07 
E_vdwl   = -831.902 E_coul   = 0 E_pair   = -831.902 
E_bond   = 0 E_angle  = 0 E_dihed  = 0 
Lx       = 10.8553 Ly       = 16.2863 Lz       = 22.1719 
Volume   = 3919.81 Pxx      = -13824.2 Pyy      = -13971.4 
Pzz      = -29813.9 Pxy      = 5.45051 Pxz      = 131.937 
Pyz      = 196.46 v_eb     = 0 v_ev     = 0 
v_et     = 0 v_ew     = -831.902 v_ep     = 0 
---------------- Step   103500 ----- CPU =      6.4396 (sec) ----------------
Step     =         103500 CPU      = 6.43964 Temp     =   5.2516241e-06 
Press    = -19284.2 PotEng   = -831.895 KinEng   = 1.29656e-07 
E_vdwl   = -831.895 E_coul   = 0 E_pair   = -831.895 
E_bond   = 0 E_angle  = 0 E_dihed  = 0 
Lx       = 10.8552 Ly       = 16.2862 Lz       = 22.1741 
Volume   = 3920.14 Pxx      = -13877 Pyy      = -14026.2 
Pzz      = -29949.2 Pxy      = 9.0543 Pxz      = 133.876 
Pyz      = 199.311 v_eb     = 0 v_ev     = 0 
v_et     = 0 v_ew     = -831.895 v_ep     = 0 
---------------- Step   104000 ----- CPU =      6.5302 (sec) ----------------
Step     =         104000 CPU      = 6.5302 Temp     =   5.3095956e-06 
Press    = -19365.1 PotEng   = -831.888 KinEng   = 1.31087e-07 
E_vdwl   = -831.888 E_coul   = 0 E_pair   = -831.888 
E_bond   = 0 E_angle  = 0 E_dihed  = 0 
Lx       = 10.8551 Ly       = 16.2861 Lz       = 22.1762 
Volume   = 3920.46 Pxx      = -13929.8 Pyy      = -14081.1 
Pzz      = -30084.5 Pxy      = 6.21058 Pxz      = 135.817 
Pyz      = 201.4 v_eb     = 0 v_ev     = 0 
v_et     = 0 v_ew     = -831.888 v_ep     = 0 
---------------- Step   104500 ----- CPU =      6.6209 (sec) ----------------
Step     =         104500 CPU      = 6.62091 Temp     =   5.4433703e-06 
Press    = -19446.1 PotEng   = -831.882 KinEng   = 1.3439e-07 
E_vdwl   = -831.882 E_coul   = 0 E_pair   = -831.882 
E_bond   = 0 E_angle  = 0 E_dihed  = 0 
Lx       = 10.855 Ly       = 16.286 Lz       = 22.1784 
Volume   = 3920.79 Pxx      = -13982.6 Pyy      = -14135.9 
Pzz      = -30219.8 Pxy      = 8.54614 Pxz      = 137.587 
Pyz      = 205.232 v_eb     = 0 v_ev     = 0 
v_et     = 0 v_ew     = -831.882 v_ep     = 0 
---------------- Step   105000 ----- CPU =      6.7115 (sec) ----------------
Step     =         105000 CPU      = 6.71149 Temp     =   5.2640881e-06 
Press    = -19527 PotEng   = -831.875 KinEng   = 1.29963e-07 
E_vdwl   = -831.875 E_coul   = 0 E_pair   = -831.875 
E_bond   = 0 E_angle  = 0 E_dihed  = 0 
Lx       = 10.8549 Ly       = 16.2859 Lz       = 22.1806 
Volume   = 3921.12 Pxx      = -14035.3 Pyy      = -14190.8 
Pzz      = -30355 Pxy      = 7.23353 Pxz      = 139.592 
Pyz      = 207.234 v_eb     = 0 v_ev     = 0 
v_et     = 0 v_ew     = -831.875 v_ep     = 0 
---------------- Step   105500 ----- CPU =      6.8073 (sec) ----------------
Step     =         105500 CPU      = 6.80727 Temp     =   4.1637042e-06 
Press    = -19607.9 PotEng   = -831.868 KinEng   = 1.02796e-07 
E_vdwl   = -831.868 E_coul   = 0 E_pair   = -831.868 
E_bond   = 0 E_angle  = 0 E_dihed  = 0 
Lx       = 10.8548 Ly       = 16.2858 Lz       = 22.1828 
Volume   = 3921.45 Pxx      = -14088 Pyy      = -14245.5 
Pzz      = -30490.2 Pxy      = 7.8942 Pxz      = 141.427 
Pyz      = 210.226 v_eb     = 0 v_ev     = 0 
v_et     = 0 v_ew     = -831.868 v_ep     = 0 
---------------- Step   106000 ----- CPU =      6.8977 (sec) ----------------
Step     =         106000 CPU      = 6.89769 Temp     =   5.4398685e-06 
Press    = -19688.8 PotEng   = -831.861 KinEng   = 1.34303e-07 
E_vdwl   = -831.861 E_coul   = 0 E_pair   = -831.861 
E_bond   = 0 E_angle  = 0 E_dihed  = 0 
Lx       = 10.8547 Ly       = 16.2857 Lz       = 22.185 
Volume   = 3921.78 Pxx      = -14140.7 Pyy      = -14300.3 
Pzz      = -30625.3 Pxy      = 8.29229 Pxz      = 143.276 
Pyz      = 213.557 v_eb     = 0 v_ev     = 0 
v_et     = 0 v_ew     = -831.861 v_ep     = 0 
---------------- Step   106500 ----- CPU =      6.9889 (sec) ----------------
Step     =         106500 CPU      = 6.98887 Temp     =   6.0797248e-06 
Press    = -19769.6 PotEng   = -831.854 KinEng   = 1.501e-07 
E_vdwl   = -831.854 E_coul   = 0 E_pair   = -831.854 
E_bond   = 0 E_angle  = 0 E_dihed  = 0 
Lx       = 10.8546 Ly       = 16.2856 Lz       = 22.1872 
Volume   = 3922.11 Pxx      = -14193.3 Pyy      = -14355 
Pzz      = -30760.5 Pxy      = 7.29646 Pxz      = 145.275 
Pyz      = 215.387 v_eb     = 0 v_ev     = 0 
v_et     = 0 v_ew     = -831.854 v_ep     = 0 
---------------- Step   107000 ----- CPU =      7.0793 (sec) ----------------
Step     =         107000 CPU      = 7.07935 Temp     =   5.0725647e-06 
Press    = -19850.4 PotEng   = -831.847 KinEng   = 1.25235e-07 
E_vdwl   = -831.847 E_coul   = 0 E_pair   = -831.847 
E_bond   = 0 E_angle  = 0 E_dihed  = 0 
Lx       = 10.8545 Ly       = 16.2855 Lz       = 22.1893 
Volume   = 3922.43 Pxx      = -14246 Pyy      = -14409.7 
Pzz      = -30895.6 Pxy      = 9.22579 Pxz      = 147.034 
Pyz      = 219.158 v_eb     = 0 v_ev     = 0 
v_et     = 0 v_ew     = -831.847 v_ep     = 0 
---------------- Step   107500 ----- CPU =      7.1714 (sec) ----------------
Step     =         107500 CPU      = 7.17138 Temp     =   5.3367321e-06 
Press    = -19931.2 PotEng   = -831.84 KinEng   = 1.31757e-07 
E_vdwl   = -831.84 E_coul   = 0 E_pair   = -831.84 
E_bond   = 0 E_angle  = 0 E_dihed  = 0 
Lx       = 10.8544 Ly       = 16.2854 Lz       = 22.1915 
Volume   = 3922.76 Pxx      = -14298.6 Pyy      = -14464.4 
Pzz      = -31030.7 Pxy      = 6.87454 Pxz      = 149.001 
Pyz      = 221.458 v_eb     = 0 v_ev     = 0 
v_et     = 0 v_ew     = -831.84 v_ep     = 0 
---------------- Step   108000 ----- CPU =      7.2628 (sec) ----------------
Step     =         108000 CPU      = 7.26279 Temp     =   6.0083821e-06 
Press    = -20012 PotEng   = -831.833 KinEng   = 1.48339e-07 
E_vdwl   = -831.833 E_coul   = 0 E_pair   = -831.833 
E_bond   = 0 E_angle  = 0 E_dihed  = 0 
Lx       = 10.8543 Ly       = 16.2853 Lz       = 22.1937 
Volume   = 3923.09 Pxx      = -14351.1 Pyy      = -14519.1 
Pzz      = -31165.8 Pxy      = 9.95088 Pxz      = 150.898 
Pyz      = 224.085 v_eb     = 0 v_ev     = 0 
v_et     = 0 v_ew     = -831.833 v_ep     = 0 
---------------- Step   108500 ----- CPU =      7.3538 (sec) ----------------
Step     =         108500 CPU      = 7.35379 Temp     =   4.3266086e-06 
Press    = -20092.7 PotEng   = -831.826 KinEng   = 1.06818e-07 
E_vdwl   = -831.826 E_coul   = 0 E_pair   = -831.826 
E_bond   = 0 E_angle  = 0 E_dihed  = 0 
Lx       = 10.8542 Ly       = 16.2852 Lz       = 22.1959 
Volume   = 3923.42 Pxx      = -14403.7 Pyy      = -14573.7 
Pzz      = -31300.8 Pxy      = 6.67619 Pxz      = 152.681 
Pyz      = 227.664 v_eb     = 0 v_ev     = 0 
v_et     = 0 v_ew     = -831.826 v_ep     = 0 
---------------- Step   109000 ----- CPU =      7.4449 (sec) ----------------
Step     =         109000 CPU      = 7.44486 Temp     =   5.2149302e-06 
Press    = -20173.4 PotEng   = -831.819 KinEng   = 1.2875e-07 
E_vdwl   = -831.819 E_coul   = 0 E_pair   = -831.819 
E_bond   = 0 E_angle  = 0 E_dihed  = 0 
Lx       = 10.8541 Ly       = 16.2851 Lz       = 22.1981 
Volume   = 3923.75 Pxx      = -14456.2 Pyy      = -14628.3 
Pzz      = -31435.9 Pxy      = 10.4511 Pxz      = 154.728 
Pyz      = 229.449 v_eb     = 0 v_ev     = 0 
v_et     = 0 v_ew     = -831.819 v_ep     = 0 
---------------- Step   109500 ----- CPU =      7.5359 (sec) ----------------
Step     =         109500 CPU      = 7.53587 Temp     =   4.5328062e-06 
Press    = -20254.1 PotEng   = -831.812 KinEng   = 1.11909e-07 
E_vdwl   = -831.812 E_coul   = 0 E_pair   = -831.812 
E_bond   = 0 E_angle  = 0 E_dihed  = 0 
Lx       = 10.854 Ly       = 16.285 Lz       = 22.2002 
Volume   = 3924.08 Pxx      = -14508.7 Pyy      = -14682.8 
Pzz      = -31570.9 Pxy      = 6.69131 Pxz      = 156.455 
Pyz      = 233.072 v_eb     = 0 v_ev     = 0 
v_et     = 0 v_ew     = -831.812 v_ep     = 0 
---------------- Step   110000 ----- CPU =      7.6269 (sec) ----------------
Step     =         110000 CPU      = 7.62691 Temp     =   5.3874521e-06 
Press    = -20334.8 PotEng   = -831.805 KinEng   = 1.33009e-07 
E_vdwl   = -831.805 E_coul   = 0 E_pair   = -831.805 
E_bond   = 0 E_angle  = 0 E_dihed  = 0 
Lx       = 10.8539 Ly       = 16.2849 Lz       = 22.2024 
Volume   = 3924.4 Pxx      = -14561.2 Pyy      = -14737.4 
Pzz      = -31705.8 Pxy      = 10.7578 Pxz      = 158.442 
Pyz      = 235.611 v_eb     = 0 v_ev     = 0 
v_et     = 0 v_ew     = -831.805 v_ep     = 0 
---------------- Step   110500 ----- CPU =      7.7186 (sec) ----------------
Step     =         110500 CPU      = 7.71862 Temp     =   5.3947937e-06 
Press    = -20415.4 PotEng   = -831.798 KinEng   = 1.3319e-07 
E_vdwl   = -831.798 E_coul   = 0 E_pair   = -831.798 
E_bond   = 0 E_angle  = 0 E_dihed  = 0 
Lx       = 10.8538 Ly       = 16.2848 Lz       = 22.2046 
Volume   = 3924.73 Pxx      = -14613.6 Pyy      = -14791.9 
Pzz      = -31840.8 Pxy      = 6.87313 Pxz      = 160.314 
Pyz      = 238.011 v_eb     = 0 v_ev     = 0 
v_et     = 0 v_ew     = -831.798 v_ep     = 0 
---------------- Step   111000 ----- CPU =      7.8092 (sec) ----------------
Step     =         111000 CPU      = 7.80922 Temp     =   4.8559065e-06 
Press    = -20496 PotEng   = -831.791 KinEng   = 1.19886e-07 
E_vdwl   = -831.791 E_coul   = 0 E_pair   = -831.791 
E_bond   = 0 E_angle  = 0 E_dihed  = 0 
Lx       = 10.8537 Ly       = 16.2847 Lz       = 22.2068 
Volume   = 3925.06 Pxx      = -14666 Pyy      = -14846.4 
Pzz      = -31975.7 Pxy      = 10.927 Pxz      = 162.13 
Pyz      = 241.726 v_eb     = 0 v_ev     = 0 
v_et     = 0 v_ew     = -831.791 v_ep     = 0 
---------------- Step   111500 ----- CPU =      7.9002 (sec) ----------------
Step     =         111500 CPU      = 7.90017 Temp     =   4.8091826e-06 
Press    = -20576.6 PotEng   = -831.784 KinEng   = 1.18732e-07 
E_vdwl   = -831.784 E_coul   = 0 E_pair   = -831.784 
E_bond   = 0 E_angle  = 0 E_dihed  = 0 
Lx       = 10.8537 Ly       = 16.2846 Lz       = 22.209 
Volume   = 3925.39 Pxx      = -14718.4 Pyy      = -14900.8 
Pzz      = -32110.6 Pxy      = 7.16197 Pxz      = 164.129 
Pyz      = 243.465 v_eb     = 0 v_ev     = 0 
v_et     = 0 v_ew     = -831.784 v_ep     = 0 
---------------- Step   112000 ----- CPU =      7.9915 (sec) ----------------
Step     =         112000 CPU      = 7.99155 Temp     =   5.1116229e-06 
Press    = -20657.2 PotEng   = -831.777 KinEng   = 1.26199e-07 
E_vdwl   = -831.777 E_coul   = 0 E_pair   = -831.777 
E_bond   = 0 E_angle  = 0 E_dihed  = 0 
Lx       = 10.8536 Ly       = 16.2846 Lz       = 22.2112 
Volume   = 3925.72 Pxx      = -14770.8 Pyy      = -14955.3 
Pzz      = -32245.5 Pxy      = 11.0174 Pxz      = 165.91 
Pyz      = 247.077 v_eb     = 0 v_ev     = 0 
v_et     = 0 v_ew     = -831.777 v_ep     = 0 
---------------- Step   112500 ----- CPU =      8.0827 (sec) ----------------
Step     =         112500 CPU      = 8.08267 Temp     =   5.4596216e-06 
Press    = -20737.7 PotEng   = -831.769 KinEng   = 1.34791e-07 
E_vdwl   = -831.769 E_coul   = 0 E_pair   = -831.769 
E_bond   = 0 E_angle  = 0 E_dihed  = 0 
Lx       = 10.8535 Ly       = 16.2845 Lz       = 22.2133 
Volume   = 3926.05 Pxx      = -14823.1 Pyy      = -15009.7 
Pzz      = -32380.3 Pxy      = 7.5037 Pxz      = 167.84 
Pyz      = 249.624 v_eb     = 0 v_ev     = 0 
v_et     = 0 v_ew     = -831.769 v_ep     = 0 
---------------- Step   113000 ----- CPU =      8.1753 (sec) ----------------
Step     =         113000 CPU      = 8.17531 Temp     =   5.5060602e-06 
Press    = -20818.2 PotEng   = -831.762 KinEng   = 1.35937e-07 
E_vdwl   = -831.762 E_coul   = 0 E_pair   = -831.762 
E_bond   = 0 E_angle  = 0 E_dihed  = 0 
Lx       = 10.8534 Ly       = 16.2844 Lz       = 22.2155 
Volume   = 3926.37 Pxx      = -14875.5 Pyy      = -15064.1 
Pzz      = -32515.2 Pxy      = 11.0768 Pxz      = 169.763 
Pyz      = 252.042 v_eb     = 0 v_ev     = 0 
v_et     = 0 v_ew     = -831.762 v_ep     = 0 
---------------- Step   113500 ----- CPU =      8.2716 (sec) ----------------
Step     =         113500 CPU      = 8.27159 Temp     =   4.8134294e-06 
Press    = -20898.7 PotEng   = -831.755 KinEng   = 1.18837e-07 
E_vdwl   = -831.755 E_coul   = 0 E_pair   = -831.755 
E_bond   = 0 E_angle  = 0 E_dihed  = 0 
Lx       = 10.8533 Ly       = 16.2843 Lz       = 22.2177 
Volume   = 3926.7 Pxx      = -14927.8 Pyy      = -15118.4 
Pzz      = -32650 Pxy      = 7.8572 Pxz      = 171.529 
Pyz      = 255.717 v_eb     = 0 v_ev     = 0 
v_et     = 0 v_ew     = -831.755 v_ep     = 0 
---------------- Step   114000 ----- CPU =      8.3623 (sec) ----------------
Step     =         114000 CPU      = 8.36229 Temp     =   6.4138193e-06 
Press    = -20979.2 PotEng   = -831.747 KinEng   = 1.58349e-07 
E_vdwl   = -831.747 E_coul   = 0 E_pair   = -831.747 
E_bond   = 0 E_angle  = 0 E_dihed  = 0 
Lx       = 10.8532 Ly       = 16.2842 Lz       = 22.2199 
Volume   = 3927.03 Pxx      = -14980 Pyy      = -15172.7 
Pzz      = -32784.7 Pxy      = 11.1402 Pxz      = 173.576 
Pyz      = 257.473 v_eb     = 0 v_ev     = 0 
v_et     = 0 v_ew     = -831.747 v_ep     = 0 
---------------- Step   114500 ----- CPU =      8.4527 (sec) ----------------
Step     =         114500 CPU      = 8.45272 Temp     =   5.4723924e-06 
Press    = -21059.6 PotEng   = -831.74 KinEng   = 1.35106e-07 
E_vdwl   = -831.74 E_coul   = 0 E_pair   = -831.74 
E_bond   = 0 E_angle  = 0 E_dihed  = 0 
Lx       = 10.8531 Ly       = 16.2841 Lz       = 22.2221 
Volume   = 3927.36 Pxx      = -15032.3 Pyy      = -15227 
Pzz      = -32919.5 Pxy      = 8.19251 Pxz      = 175.3 
Pyz      = 261.121 v_eb     = 0 v_ev     = 0 
v_et     = 0 v_ew     = -831.74 v_ep     = 0 
---------------- Step   115000 ----- CPU =      8.5431 (sec) ----------------
Step     =         115000 CPU      = 8.54308 Temp     =   5.0226169e-06 
Press    = -21140 PotEng   = -831.733 KinEng   = 1.24002e-07 
E_vdwl   = -831.733 E_coul   = 0 E_pair   = -831.733 
E_bond   = 0 E_angle  = 0 E_dihed  = 0 
Lx       = 10.853 Ly       = 16.284 Lz       = 22.2242 
Volume   = 3927.69 Pxx      = -15084.5 Pyy      = -15281.3 
Pzz      = -33054.2 Pxy      = 11.2333 Pxz      = 177.294 
Pyz      = 263.562 v_eb     = 0 v_ev     = 0 
v_et     = 0 v_ew     = -831.733 v_ep     = 0 
---------------- Step   115500 ----- CPU =      8.6353 (sec) ----------------
Step     =         115500 CPU      = 8.63535 Temp     =    5.147629e-06 
Press    = -21220.4 PotEng   = -831.725 KinEng   = 1.27088e-07 
E_vdwl   = -831.725 E_coul   = 0 E_pair   = -831.725 
E_bond   = 0 E_angle  = 0 E_dihed  = 0 
Lx       = 10.8529 Ly       = 16.2839 Lz       = 22.2264 
Volume   = 3928.02 Pxx      = -15136.7 Pyy      = -15335.6 
Pzz      = -33188.9 Pxy      = 8.48775 Pxz      = 179.143 
Pyz      = 266.112 v_eb     = 0 v_ev     = 0 
v_et     = 0 v_ew     = -831.725 v_ep     = 0 
---------------- Step   116000 ----- CPU =      8.7261 (sec) ----------------
Step     =         116000 CPU      = 8.72614 Temp     =   4.9249565e-06 
Press    = -21300.7 PotEng   = -831.718 KinEng   = 1.21591e-07 
E_vdwl   = -831.718 E_coul   = 0 E_pair   = -831.718 
E_bond   = 0 E_angle  = 0 E_dihed  = 0 
Lx       = 10.8528 Ly       = 16.2838 Lz       = 22.2286 
Volume   = 3928.34 Pxx      = -15188.8 Pyy      = -15389.8 
Pzz      = -33323.6 Pxy      = 11.3743 Pxz      = 180.979 
Pyz      = 269.691 v_eb     = 0 v_ev     = 0 
v_et     = 0 v_ew     = -831.718 v_ep     = 0 
---------------- Step   116500 ----- CPU =      8.8164 (sec) ----------------
Step     =         116500 CPU      = 8.81641 Temp     =   5.5830669e-06 
Press    = -21381 PotEng   = -831.71 KinEng   = 1.37839e-07 
E_vdwl   = -831.71 E_coul   = 0 E_pair   = -831.71 
E_bond   = 0 E_angle  = 0 E_dihed  = 0 
Lx       = 10.8527 Ly       = 16.2837 Lz       = 22.2308 
Volume   = 3928.67 Pxx      = -15241 Pyy      = -15444 
Pzz      = -33458.2 Pxy      = 8.72861 Pxz      = 182.967 
Pyz      = 271.426 v_eb     = 0 v_ev     = 0 
v_et     = 0 v_ew     = -831.71 v_ep     = 0 
---------------- Step   117000 ----- CPU =      8.9070 (sec) ----------------
Step     =         117000 CPU      = 8.90704 Temp     =   5.3577934e-06 
Press    = -21461.3 PotEng   = -831.703 KinEng   = 1.32277e-07 
E_vdwl   = -831.703 E_coul   = 0 E_pair   = -831.703 
E_bond   = 0 E_angle  = 0 E_dihed  = 0 
Lx       = 10.8526 Ly       = 16.2836 Lz       = 22.233 
Volume   = 3929 Pxx      = -15293.1 Pyy      = -15498.1 
Pzz      = -33592.9 Pxy      = 11.5732 Pxz      = 184.724 
Pyz      = 275.248 v_eb     = 0 v_ev     = 0 
v_et     = 0 v_ew     = -831.703 v_ep     = 0 
---------------- Step   117500 ----- CPU =      8.9987 (sec) ----------------
Step     =         117500 CPU      = 8.99869 Temp     =   6.0666833e-06 
Press    = -21541.6 PotEng   = -831.695 KinEng   = 1.49778e-07 
E_vdwl   = -831.695 E_coul   = 0 E_pair   = -831.695 
E_bond   = 0 E_angle  = 0 E_dihed  = 0 
Lx       = 10.8525 Ly       = 16.2835 Lz       = 22.2351 
Volume   = 3929.33 Pxx      = -15345.1 Pyy      = -15552.3 
Pzz      = -33727.5 Pxy      = 8.90951 Pxz      = 186.708 
Pyz      = 277.367 v_eb     = 0 v_ev     = 0 
v_et     = 0 v_ew     = -831.695 v_ep     = 0 
---------------- Step   118000 ----- CPU =      9.0921 (sec) ----------------
Step     =         118000 CPU      = 9.09214 Temp     =   5.6886305e-06 
Press    = -21621.9 PotEng   = -831.688 KinEng   = 1.40445e-07 
E_vdwl   = -831.688 E_coul   = 0 E_pair   = -831.688 
E_bond   = 0 E_angle  = 0 E_dihed  = 0 
Lx       = 10.8524 Ly       = 16.2834 Lz       = 22.2373 
Volume   = 3929.66 Pxx      = -15397.2 Pyy      = -15606.4 
Pzz      = -33862 Pxy      = 11.8312 Pxz      = 188.547 
Pyz      = 280.309 v_eb     = 0 v_ev     = 0 
v_et     = 0 v_ew     = -831.688 v_ep     = 0 
---------------- Step   118500 ----- CPU =      9.1833 (sec) ----------------
Step     =         118500 CPU      = 9.18332 Temp     =   4.8215214e-06 
Press    = -21702.1 PotEng   = -831.68 KinEng   = 1.19037e-07 
E_vdwl   = -831.68 E_coul   = 0 E_pair   = -831.68 
E_bond   = 0 E_angle  = 0 E_dihed  = 0 
Lx       = 10.8523 Ly       = 16.2833 Lz       = 22.2395 
Volume   = 3929.98 Pxx      = -15449.2 Pyy      = -15660.5 
Pzz      = -33996.6 Pxy      = 9.03365 Pxz      = 190.395 
Pyz      = 283.531 v_eb     = 0 v_ev     = 0 
v_et     = 0 v_ew     = -831.68 v_ep     = 0 
---------------- Step   119000 ----- CPU =      9.2749 (sec) ----------------
Step     =         119000 CPU      = 9.27492 Temp     =   5.9304498e-06 
Press    = -21782.3 PotEng   = -831.672 KinEng   = 1.46415e-07 
E_vdwl   = -831.672 E_coul   = 0 E_pair   = -831.672 
E_bond   = 0 E_angle  = 0 E_dihed  = 0 
Lx       = 10.8522 Ly       = 16.2832 Lz       = 22.2417 
Volume   = 3930.31 Pxx      = -15501.2 Pyy      = -15714.5 
Pzz      = -34131.1 Pxy      = 12.1412 Pxz      = 192.383 
Pyz      = 285.462 v_eb     = 0 v_ev     = 0 
v_et     = 0 v_ew     = -831.672 v_ep     = 0 
---------------- Step   119500 ----- CPU =      9.3659 (sec) ----------------
Step     =         119500 CPU      = 9.36587 Temp     =   5.5368344e-06 
Press    = -21862.5 PotEng   = -831.665 KinEng   = 1.36697e-07 
E_vdwl   = -831.665 E_coul   = 0 E_pair   = -831.665 
E_bond   = 0 E_angle  = 0 E_dihed  = 0 
Lx       = 10.8521 Ly       = 16.2831 Lz       = 22.2439 
Volume   = 3930.64 Pxx      = -15553.2 Pyy      = -15768.6 
Pzz      = -34265.6 Pxy      = 9.11168 Pxz      = 194.107 
Pyz      = 289.325 v_eb     = 0 v_ev     = 0 
v_et     = 0 v_ew     = -831.665 v_ep     = 0 
---------------- Step   120000 ----- CPU =      9.4572 (sec) ----------------
Step     =         120000 CPU      = 9.45716 Temp     =   5.8148337e-06 
Press    = -21942.6 PotEng   = -831.657 KinEng   = 1.43561e-07 
E_vdwl   = -831.657 E_coul   = 0 E_pair   = -831.657 
E_bond   = 0 E_angle  = 0 E_dihed  = 0 
Lx       = 10.852 Ly       = 16.283 Lz       = 22.2461 
Volume   = 3930.97 Pxx      = -15605.2 Pyy      = -15822.6 
Pzz      = -34400.1 Pxy      = 12.489 Pxz      = 196.16 
Pyz      = 291.143 v_eb     = 0 v_ev     = 0 
v_et     = 0 v_ew     = -831.657 v_ep     = 0 
---------------- Step   120500 ----- CPU =      9.5487 (sec) ----------------
Step     =         120500 CPU      = 9.54869 Temp     =   5.7247107e-06 
Press    = -22022.7 PotEng   = -831.649 KinEng   = 1.41336e-07 
E_vdwl   = -831.649 E_coul   = 0 E_pair   = -831.649 
E_bond   = 0 E_angle  = 0 E_dihed  = 0 
Lx       = 10.8519 Ly       = 16.2829 Lz       = 22.2482 
Volume   = 3931.3 Pxx      = -15657.1 Pyy      = -15876.5 
Pzz      = -34534.5 Pxy      = 9.1615 Pxz      = 197.89 
Pyz      = 294.575 v_eb     = 0 v_ev     = 0 
v_et     = 0 v_ew     = -831.649 v_ep     = 0 
---------------- Step   121000 ----- CPU =      9.6398 (sec) ----------------
Step     =         121000 CPU      = 9.63981 Temp     =   6.0624521e-06 
Press    = -22102.8 PotEng   = -831.641 KinEng   = 1.49674e-07 
E_vdwl   = -831.641 E_coul   = 0 E_pair   = -831.641 
E_bond   = 0 E_angle  = 0 E_dihed  = 0 
Lx       = 10.8518 Ly       = 16.2828 Lz       = 22.2504 
Volume   = 3931.63 Pxx      = -15709 Pyy      = -15930.5 
Pzz      = -34669 Pxy      = 12.8524 Pxz      = 199.869 
Pyz      = 297.238 v_eb     = 0 v_ev     = 0 
v_et     = 0 v_ew     = -831.641 v_ep     = 0 
---------------- Step   121500 ----- CPU =      9.7307 (sec) ----------------
Step     =         121500 CPU      = 9.73066 Temp     =   5.1635915e-06 
Press    = -22182.9 PotEng   = -831.634 KinEng   = 1.27482e-07 
E_vdwl   = -831.634 E_coul   = 0 E_pair   = -831.634 
E_bond   = 0 E_angle  = 0 E_dihed  = 0 
Lx       = 10.8517 Ly       = 16.2828 Lz       = 22.2526 
Volume   = 3931.95 Pxx      = -15760.9 Pyy      = -15984.4 
Pzz      = -34803.4 Pxy      = 9.21018 Pxz      = 201.719 
Pyz      = 299.63 v_eb     = 0 v_ev     = 0 
v_et     = 0 v_ew     = -831.634 v_ep     = 0 
---------------- Step   122000 ----- CPU =      9.8212 (sec) ----------------
Step     =         122000 CPU      = 9.82119 Temp     =   5.4164324e-06 
Press    = -22262.9 PotEng   = -831.626 KinEng   = 1.33725e-07 
E_vdwl   = -831.626 E_coul   = 0 E_pair   = -831.626 
E_bond   = 0 E_angle  = 0 E_dihed  = 0 
Lx       = 10.8517 Ly       = 16.2827 Lz       = 22.2548 
Volume   = 3932.28 Pxx      = -15812.7 Pyy      = -16038.3 
Pzz      = -34937.7 Pxy      = 13.1986 Pxz      = 203.561 
Pyz      = 303.268 v_eb     = 0 v_ev     = 0 
v_et     = 0 v_ew     = -831.626 v_ep     = 0 
---------------- Step   122500 ----- CPU =      9.9117 (sec) ----------------
Step     =         122500 CPU      = 9.91169 Temp     =   5.9339322e-06 
Press    = -22342.9 PotEng   = -831.618 KinEng   = 1.46501e-07 
E_vdwl   = -831.618 E_coul   = 0 E_pair   = -831.618 
E_bond   = 0 E_angle  = 0 E_dihed  = 0 
Lx       = 10.8516 Ly       = 16.2826 Lz       = 22.257 
Volume   = 3932.61 Pxx      = -15864.6 Pyy      = -16092.2 
Pzz      = -35072.1 Pxy      = 9.29724 Pxz      = 205.53 
Pyz      = 304.973 v_eb     = 0 v_ev     = 0 
v_et     = 0 v_ew     = -831.618 v_ep     = 0 
---------------- Step   123000 ----- CPU =     10.0028 (sec) ----------------
Step     =         123000 CPU      = 10.0028 Temp     =    5.264393e-06 
Press    = -22422.9 PotEng   = -831.61 KinEng   = 1.29971e-07 
E_vdwl   = -831.61 E_coul   = 0 E_pair   = -831.61 
E_bond   = 0 E_angle  = 0 E_dihed  = 0 
Lx       = 10.8515 Ly       = 16.2825 Lz       = 22.2591 
Volume   = 3932.94 Pxx      = -15916.4 Pyy      = -16146 
Pzz      = -35206.4 Pxy      = 13.4812 Pxz      = 207.295 
Pyz      = 308.863 v_eb     = 0 v_ev     = 0 
v_et     = 0 v_ew     = -831.61 v_ep     = 0 
---------------- Step   123500 ----- CPU =     10.0935 (sec) ----------------
Step     =         123500 CPU      = 10.0935 Temp     =    4.744908e-06 
Press    = -22502.9 PotEng   = -831.602 KinEng   = 1.17146e-07 
E_vdwl   = -831.602 E_coul   = 0 E_pair   = -831.602 
E_bond   = 0 E_angle  = 0 E_dihed  = 0 
Lx       = 10.8514 Ly       = 16.2824 Lz       = 22.2613 
Volume   = 3933.27 Pxx      = -15968.1 Pyy      = -16199.8 
Pzz      = -35340.7 Pxy      = 9.47559 Pxz      = 209.283 
Pyz      = 310.788 v_eb     = 0 v_ev     = 0 
v_et     = 0 v_ew     = -831.602 v_ep     = 0 
---------------- Step   124000 ----- CPU =     10.1845 (sec) ----------------
Step     =         124000 CPU      = 10.1845 Temp     =   5.3086584e-06 
Press    = -22582.8 PotEng   = -831.594 KinEng   = 1.31064e-07 
E_vdwl   = -831.594 E_coul   = 0 E_pair   = -831.594 
E_bond   = 0 E_angle  = 0 E_dihed  = 0 
Lx       = 10.8513 Ly       = 16.2823 Lz       = 22.2635 
Volume   = 3933.59 Pxx      = -16019.9 Pyy      = -16253.6 
Pzz      = -35475 Pxy      = 13.6419 Pxz      = 211.087 
Pyz      = 314.047 v_eb     = 0 v_ev     = 0 
v_et     = 0 v_ew     = -831.594 v_ep     = 0 
---------------- Step   124500 ----- CPU =     10.2753 (sec) ----------------
Step     =         124500 CPU      = 10.2753 Temp     =   6.1803209e-06 
Press    = -22662.8 PotEng   = -831.586 KinEng   = 1.52584e-07 
E_vdwl   = -831.586 E_coul   = 0 E_pair   = -831.586 
E_bond   = 0 E_angle  = 0 E_dihed  = 0 
Lx       = 10.8512 Ly       = 16.2822 Lz       = 22.2657 
Volume   = 3933.92 Pxx      = -16071.6 Pyy      = -16307.4 
Pzz      = -35609.2 Pxy      = 9.80669 Pxz      = 212.986 
Pyz      = 316.865 v_eb     = 0 v_ev     = 0 
v_et     = 0 v_ew     = -831.586 v_ep     = 0 
---------------- Step   125000 ----- CPU =     10.3664 (sec) ----------------
Step     =         125000 CPU      = 10.3664 Temp     =   5.5756215e-06 
Press    = -22742.6 PotEng   = -831.578 KinEng   = 1.37655e-07 
E_vdwl   = -831.578 E_coul   = 0 E_pair   = -831.578 
E_bond   = 0 E_angle  = 0 E_dihed  = 0 
Lx       = 10.8511 Ly       = 16.2821 Lz       = 22.2679 
Volume   = 3934.25 Pxx      = -16123.3 Pyy      = -16361.1 
Pzz      = -35743.5 Pxy      = 13.6191 Pxz      = 214.907 
Pyz      = 319.157 v_eb     = 0 v_ev     = 0 
v_et     = 0 v_ew     = -831.578 v_ep     = 0 
---------------- Step   125500 ----- CPU =     10.4570 (sec) ----------------
Step     =         125500 CPU      = 10.4571 Temp     =   6.4910135e-06 
Press    = -22822.5 PotEng   = -831.57 KinEng   = 1.60255e-07 
E_vdwl   = -831.57 E_coul   = 0 E_pair   = -831.57 
E_bond   = 0 E_angle  = 0 E_dihed  = 0 
Lx       = 10.851 Ly       = 16.282 Lz       = 22.2701 
Volume   = 3934.58 Pxx      = -16175 Pyy      = -16414.9 
Pzz      = -35877.7 Pxy      = 10.3477 Pxz      = 216.683 
Pyz      = 322.822 v_eb     = 0 v_ev     = 0 
v_et     = 0 v_ew     = -831.57 v_ep     = 0 
---------------- Step   126000 ----- CPU =     10.5481 (sec) ----------------
Step     =         126000 CPU      = 10.5481 Temp     =   5.3170589e-06 
Press    = -22902.3 PotEng   = -831.562 KinEng   = 1.31271e-07 
E_vdwl   = -831.562 E_coul   = 0 E_pair   = -831.562 
E_bond   = 0 E_angle  = 0 E_dihed  = 0 
Lx       = 10.8509 Ly       = 16.2819 Lz       = 22.2722 
Volume   = 3934.91 Pxx      = -16226.6 Pyy      = -16468.5 
Pzz      = -36011.9 Pxy      = 13.3657 Pxz      = 218.706 
Pyz      = 324.537 v_eb     = 0 v_ev     = 0 
v_et     = 0 v_ew     = -831.562 v_ep     = 0 
---------------- Step   126500 ----- CPU =     10.6391 (sec) ----------------
Step     =         126500 CPU      = 10.6391 Temp     =   5.7448832e-06 
Press    = -22982.2 PotEng   = -831.554 KinEng   = 1.41834e-07 
E_vdwl   = -831.554 E_coul   = 0 E_pair   = -831.554 
E_bond   = 0 E_angle  = 0 E_dihed  = 0 
Lx       = 10.8508 Ly       = 16.2818 Lz       = 22.2744 
Volume   = 3935.23 Pxx      = -16278.3 Pyy      = -16522.2 
Pzz      = -36146 Pxy      = 11.1297 Pxz      = 220.418 
Pyz      = 328.412 v_eb     = 0 v_ev     = 0 
v_et     = 0 v_ew     = -831.554 v_ep     = 0 
---------------- Step   127000 ----- CPU =     10.7296 (sec) ----------------
Step     =         127000 CPU      = 10.7296 Temp     =    6.631656e-06 
Press    = -23061.9 PotEng   = -831.546 KinEng   = 1.63727e-07 
E_vdwl   = -831.546 E_coul   = 0 E_pair   = -831.546 
E_bond   = 0 E_angle  = 0 E_dihed  = 0 
Lx       = 10.8507 Ly       = 16.2817 Lz       = 22.2766 
Volume   = 3935.56 Pxx      = -16329.9 Pyy      = -16575.8 
Pzz      = -36280.1 Pxy      = 12.8739 Pxz      = 222.455 
Pyz      = 330.303 v_eb     = 0 v_ev     = 0 
v_et     = 0 v_ew     = -831.546 v_ep     = 0 
---------------- Step   127500 ----- CPU =     10.8203 (sec) ----------------
Step     =         127500 CPU      = 10.8203 Temp     =   5.5544423e-06 
Press    = -23141.7 PotEng   = -831.538 KinEng   = 1.37132e-07 
E_vdwl   = -831.538 E_coul   = 0 E_pair   = -831.538 
E_bond   = 0 E_angle  = 0 E_dihed  = 0 
Lx       = 10.8506 Ly       = 16.2816 Lz       = 22.2788 
Volume   = 3935.89 Pxx      = -16381.4 Pyy      = -16629.4 
Pzz      = -36414.2 Pxy      = 12.13 Pxz      = 224.203 
Pyz      = 333.661 v_eb     = 0 v_ev     = 0 
v_et     = 0 v_ew     = -831.538 v_ep     = 0 
---------------- Step   128000 ----- CPU =     10.9109 (sec) ----------------
Step     =         128000 CPU      = 10.9109 Temp     =   6.1734463e-06 
Press    = -23221.4 PotEng   = -831.53 KinEng   = 1.52414e-07 
E_vdwl   = -831.53 E_coul   = 0 E_pair   = -831.53 
E_bond   = 0 E_angle  = 0 E_dihed  = 0 
Lx       = 10.8505 Ly       = 16.2815 Lz       = 22.281 
Volume   = 3936.22 Pxx      = -16433 Pyy      = -16683 
Pzz      = -36548.3 Pxy      = 12.2034 Pxz      = 226.159 
Pyz      = 336.305 v_eb     = 0 v_ev     = 0 
v_et     = 0 v_ew     = -831.53 v_ep     = 0 
---------------- Step   128500 ----- CPU =     11.0017 (sec) ----------------
Step     =         128500 CPU      = 11.0017 Temp     =   5.9977847e-06 
Press    = -23301.1 PotEng   = -831.521 KinEng   = 1.48077e-07 
E_vdwl   = -831.521 E_coul   = 0 E_pair   = -831.521 
E_bond   = 0 E_angle  = 0 E_dihed  = 0 
Lx       = 10.8504 Ly       = 16.2814 Lz       = 22.2831 
Volume   = 3936.55 Pxx      = -16484.5 Pyy      = -16736.6 
Pzz      = -36682.4 Pxy      = 13.2462 Pxz      = 228.018 
Pyz      = 338.803 v_eb     = 0 v_ev     = 0 
v_et     = 0 v_ew     = -831.521 v_ep     = 0 
---------------- Step   129000 ----- CPU =     11.0931 (sec) ----------------
Step     =         129000 CPU      = 11.0931 Temp     =   6.3840353e-06 
Press    = -23380.8 PotEng   = -831.513 KinEng   = 1.57613e-07 
E_vdwl   = -831.513 E_coul   = 0 E_pair   = -831.513 
E_bond   = 0 E_angle  = 0 E_dihed  = 0 
Lx       = 10.8503 Ly       = 16.2813 Lz       = 22.2853 
Volume   = 3936.87 Pxx      = -16536 Pyy      = -16790.1 
Pzz      = -36816.4 Pxy      = 11.5018 Pxz      = 229.847 
Pyz      = 342.272 v_eb     = 0 v_ev     = 0 
v_et     = 0 v_ew     = -831.513 v_ep     = 0 
---------------- Step   129104 ----- CPU =     11.1120 (sec) ----------------
Step     =         129104 CPU      = 11.112 Temp     =   7.0251396e-06 
Press    = -23397.4 PotEng   = -831.511 KinEng   = 1.73441e-07 
E_vdwl   = -831.511 E_coul   = 0 E_pair   = -831.511 
E_bond   = 0 E_angle  = 0 E_dihed  = 0 
Lx       = 10.8503 Ly       = 16.2813 Lz       = 22.2858 
Volume   = 3936.94 Pxx      = -16546.7 Pyy      = -16801.2 
Pzz      = -36844.3 Pxy      = 12.1521 Pxz      = 230.348 
Pyz      = 341.863 v_eb     = 0 v_ev     = 0 
v_et     = 0 v_ew     = -831.511 v_ep     = 0 
Loop time of 11.1121 on 1 procs for 60890 steps with 192 atoms

Performance: 946.881 ns/day, 0.025 hours/ns, 5479.635 timesteps/s
100.0% CPU use with 1 MPI tasks x no OpenMP threads

MPI task timing breakdown:
Section |  min time  |  avg time  |  max time  |%varavg| %total
---------------------------------------------------------------
Pair    | 10.409     | 10.409     | 10.409     |   0.0 | 93.68
Neigh   | 0          | 0          | 0          |   0.0 |  0.00
Comm    | 0.24851    | 0.24851    | 0.24851    |   0.0 |  2.24
Output  | 0.0055435  | 0.0055435  | 0.0055435  |   0.0 |  0.05
Modify  | 0.34966    | 0.34966    | 0.34966    |   0.0 |  3.15
Other   |            | 0.09905    |            |       |  0.89

Nlocal:    192 ave 192 max 192 min
Histogram: 1 0 0 0 0 0 0 0 0 0
Nghost:    932 ave 932 max 932 min
Histogram: 1 0 0 0 0 0 0 0 0 0
Neighs:    0 ave 0 max 0 min
Histogram: 1 0 0 0 0 0 0 0 0 0
FullNghs:  6528 ave 6528 max 6528 min
Histogram: 1 0 0 0 0 0 0 0 0 0

Total # of neighbors = 6528
Ave neighs/atom = 34
Neighbor list builds = 0
Dangerous builds = 0

#  Releasing fix deform constraint
unfix 1

##  Setting 2fs timesteps
##timestep        dts #2.0  #(in wrapper)
#timestep        ${dts} #2.0
#
##  Running a molecular dynamics simulation for relaxation of applied strain
##  during the same amount of time
##run             nts #2000000  #(in wrapper)
#run             ${nts} #2000000

#  Releasing fix constraints
unfix 3
#unfix 4

#  Stopping dump
#undump            atom_dump

# Sample initial state
#variable nss equal ${nssample0}
#fix   shak all shake 0.001 20 1000 m 1.0
#fix   wholevol all nvt temp ${tempt} ${tempt} 100.0
#include ${locbe}/sample.mod.lammps
#unfix wholevol
#unfix shak

#variable tmp equal f_stress[1]
#variable pp11 equal ${tmp}
#variable tmp equal f_stress[2]
#variable pp22 equal ${tmp}
#variable tmp equal f_stress[3]
#variable pp33 equal ${tmp}
#variable tmp equal f_stress[4]
#variable pp12 equal ${tmp}
#variable tmp equal f_stress[5]
#variable pp13 equal ${tmp}
#variable tmp equal f_stress[6]
#variable pp23 equal ${tmp}
write_restart /home/jinzhen/projects/SCEMa/examples/test1/nanoscale_output/last.12.g0_1.dump
write_restart /home/jinzhen/projects/SCEMa/examples/test1/nanoscale_restart/lcts.12.g0_1.dump
Total wall time: 0:00:11
