LAMMPS (17 Nov 2016)
variable mdt string 0
variable loco string /home/jinzhen/projects/SCEMa/examples/test1/nanoscale_log/tmp/2-1.9.0_1
variable locs string ./lammps_scripts_sisw
variable tempt equal 0.010000
# This file is for a LAMMPS simulation created by James Suter
# The system is polyethane, using the CVFF forcefield
# the simulation will heat up to 500K, cooldown to 200K and then perform unixial stretching in the x direction

##  This script should be just run once at the beginning to provide the initial
##  reference testing box, which will the be evolved using the in.lammps.strain
##  input file.

## Should we optimize the lammps call depending on the computer setup?
## suffix OMP

#  Setting units convention for the rest of the file
units           real            # default

#  Setting variables/attributes associated with each atom: charge, bonds, angles,
#  dihedrals, impropers (full)
atom_style      full

#  Setting the dimension of the simulation
dimension       3               # default

#  Setting boundary types in each dimension (periodic)
boundary        p p p

# Choose potential
pair_style	sw

# Setup neighbor style
neighbor 1.0 nsq
neigh_modify once no every 1 delay 0 check yes
read_restart /home/jinzhen/projects/SCEMa/examples/test1/nanoscale_output/last.9.g0_1.dump
  triclinic box = (-0.000949778 -0.00142467 -0.150057) to (10.8609 16.2914 21.8701) with tilt (0 0 0)
  1 by 1 by 1 MPI processor grid
  192 atoms
print 'specifically computed'
specifically computed
variable ll1 equal lx
variable ll2 equal ly
variable ll3 equal lz
variable dts equal 0.002000
variable nts equal 65410
variable ceeps_00 equal -3.046374e-05
variable ceeps_01 equal 8.538889e-08
variable ceeps_02 equal 1.546821e-06
variable ceeps_11 equal -1.818192e-05
variable ceeps_12 equal -4.746321e-06
variable ceeps_22 equal 9.322173e-05
# This file is for a LAMMPS simulation created by James Suter
# The system is polyethane, using the CVFF forcefield
# the simulation will heat up to 500K, cooldown to 200K and then perform unixial stretching in the x direction

## Should we optimize the lammps call depending on the computer setup?
## suffix OMP

pair_coeff * * ${locs}/Si.sw Si
pair_coeff * * ./lammps_scripts_sisw/Si.sw Si
Reading potential file ./lammps_scripts_sisw/Si.sw with DATE: 2007-06-11

variable eb      equal "ebond"
variable ea      equal "epair"
variable ev      equal "eangle"
variable et      equal "edihed"
variable ew      equal "evdwl"
variable ep      equal "ecoul"


##  -------------------------------------------
#   Calculate the stress-strain curve for uniaxial extension in the x direction

#  Setting to display thermodynamical information on the system every 500 steps
thermo          500

#  Setting the type of thermodynamical information to be printed: T, P, energies, dimesions, V, stress tensor
thermo_style    custom step cpu temp press pe ke evdwl ecoul epair ebond eangle edihed lx ly lz vol pxx pyy pzz pxy pxz pyz v_eb v_ev v_et v_ew v_ep

#  Setting the syntax of the printed thermodynamical information
thermo_modify   flush yes line multi format float %g format 3 %15.8g

#  Setting printing position information on all atoms every 5000 steps PE_stress_strain_x.xyz
#  file specifying atom type 1, 2 and 3 with names respectively C, C and H  (identical as
#  previous with different file name)
#dump            atom_dump all atom ${ndump} ${loco}/${mdt}_straining.atom
#dump            xyz_dump all xyz 5000    ${loco}/${mdt}_stress_strain_x.xyz
#dump_modify     xyz_dump element  C C H

#  Printing evolution of stress for comparison
variable pt equal "step"
variable pp equal "press"
variable p0 equal "pxx"
variable p1 equal "pyy"
variable p2 equal "pzz"
variable p10 equal "pxy"
variable p11 equal "pxz"
variable p12 equal "pyz"
variable p3 equal "pe"
variable p4 equal "ke"
variable p5 equal "temp"
variable p6 equal "lx"
variable p7 equal "ly"
variable p8 equal "lz"
variable p9 equal "vol"
variable evdwl equal "evdwl"
variable ecoul equal "ecoul"
variable eatom equal "epair"
variable ebond equal "ebond"
variable eangle equal "eangle"
variable edihed equal "edihed"

#  Storing initial dimensions of the box
variable lx1 equal ${p6}
variable lx1 equal 10.8618995568104
variable ly1 equal ${p7}
variable ly1 equal 16.2928493352156
variable lz1 equal ${p8}
variable lz1 equal 22.0201140172711

#  Compute current stress using sampling over time and fixed NVT conditions
#fix 1e all print 1 "${pt} ${pp} ${p0} ${p1} ${p2} ${p10} ${p11} ${p12} ${p3} ${p4} ${p5} ${p6} ${p7} ${p8} ${p9} ${evdwl} ${ecoul} ${eatom} ${ebond} ${eangle} ${edihed}" file ${loco}/${mdt}_strain_press_evol.dat screen no

#  Setting a Verlet time solution algorithm/integrator
run_style       verlet

#  Loading the same fix 4 as in the init.lammps set of commands.
#fix             4  all shake 0.001 20 1000 m 1.0  # SHAKE to keep bond distances / angles involving H-atoms fixe

#  Setting a global constraint of canonical ensemble on all atoms, the temperature is set constant at 200k
#  with a relaxation time of 100fs
#  > Is this done right, namely sufficiently constrained? Volume is later controlled by the fix deform
#  on all the components of the strain tensor...
#fix             3 all nvt temp 200.0 200.0 100
#fix             3 all langevin 200.0 200.0 100.0 699483
#fix             3 all nvt/sllod temp ${tempt} ${tempt} 100.0
fix             3 all nvt temp ${tempt} ${tempt} 100.0
fix             3 all nvt temp 0.01 ${tempt} 100.0
fix             3 all nvt temp 0.01 0.01 100.0

# Note: these computes are present by default in any input script when using thermo command
#compute thermo_press all temp
#compute thermo_press all pressure thermo_temp

#  Setting a strain constraint every 1 steps in the x-direction on the box at a strain rate of 1e-7 fs-1, position of
#  all atoms positions are remapped following an affine transformation, namely proportional to the box deformation.
##  Is it pertinent to remap the coordinates proportionaly to the applied
##  strains? Should we remap velocities? Or none?
##  This command might be moved to the C++ wrapper file (as well as all the
##  commands that can not be set before, probably just the run command, and
##  maybe timestep for practicality).
#print "${eeps_00} ${eeps_11} ${eeps_22} ${eeps_01} ${eeps_02} ${eeps_12}"
fix             1 all deform 1  x erate ${ceeps_00}                                 y erate ${ceeps_11}                                 z erate ${ceeps_22}                                xy erate ${ceeps_01}                                xz erate ${ceeps_02}                                yz erate ${ceeps_12}                                remap x
fix             1 all deform 1  x erate -3.046374e-05                                 y erate ${ceeps_11}                                 z erate ${ceeps_22}                                xy erate ${ceeps_01}                                xz erate ${ceeps_02}                                yz erate ${ceeps_12}                                remap x
fix             1 all deform 1  x erate -3.046374e-05                                 y erate -1.818192e-05                                 z erate ${ceeps_22}                                xy erate ${ceeps_01}                                xz erate ${ceeps_02}                                yz erate ${ceeps_12}                                remap x
fix             1 all deform 1  x erate -3.046374e-05                                 y erate -1.818192e-05                                 z erate 9.322173e-05                                xy erate ${ceeps_01}                                xz erate ${ceeps_02}                                yz erate ${ceeps_12}                                remap x
fix             1 all deform 1  x erate -3.046374e-05                                 y erate -1.818192e-05                                 z erate 9.322173e-05                                xy erate 8.538889e-08                                xz erate ${ceeps_02}                                yz erate ${ceeps_12}                                remap x
fix             1 all deform 1  x erate -3.046374e-05                                 y erate -1.818192e-05                                 z erate 9.322173e-05                                xy erate 8.538889e-08                                xz erate 1.546821e-06                                yz erate ${ceeps_12}                                remap x
fix             1 all deform 1  x erate -3.046374e-05                                 y erate -1.818192e-05                                 z erate 9.322173e-05                                xy erate 8.538889e-08                                xz erate 1.546821e-06                                yz erate -4.746321e-06                                remap x

#  Setting 2fs timesteps
#timestep        dts #2.0  #(in wrapper)
timestep        ${dts} #2.0
timestep        0.002 

#  Running a molecular dynamics simulation for 2000000 timesteps
#run             nts #2000000  #(in wrapper)
run             ${nts} #2000000
run             65410 
Neighbor list info ...
  1 neighbor list requests
  update every 1 steps, delay 0 steps, check yes
  max neighbors/atom: 2000, page size: 100000
  master list distance cutoff = 5.77118
  ghost atom cutoff = 5.77118
Memory usage per processor = 2.32527 Mbytes
---------------- Step    68214 ----- CPU =      0.0000 (sec) ----------------
Step     =          68214 CPU      = 0 Temp     =   4.1724453e-06 
Press    = -13503.7 PotEng   = -832.293 KinEng   = 1.03012e-07 
E_vdwl   = -832.293 E_coul   = 0 E_pair   = -832.293 
E_bond   = 0 E_angle  = 0 E_dihed  = 0 
Lx       = 10.8619 Ly       = 16.2928 Lz       = 22.0201 
Volume   = 3896.93 Pxx      = -10085.1 Pyy      = -10085.1 
Pzz      = -20341 Pxy      = -1.32971 Pxz      = 0.0535564 
Pyz      = -0.307749 v_eb     = 0 v_ev     = 0 
v_et     = 0 v_ew     = -832.293 v_ep     = 0 
---------------- Step    68500 ----- CPU =      0.0536 (sec) ----------------
Step     =          68500 CPU      = 0.0536358 Temp     =   3.6775399e-06 
Press    = -13528.8 PotEng   = -832.291 KinEng   = 9.07936e-08 
E_vdwl   = -832.291 E_coul   = 0 E_pair   = -832.291 
E_bond   = 0 E_angle  = 0 E_dihed  = 0 
Lx       = 10.8617 Ly       = 16.2927 Lz       = 22.0213 
Volume   = 3897.03 Pxx      = -10090.5 Pyy      = -10095.6 
Pzz      = -20400.2 Pxy      = -1.87338 Pxz      = -0.51245 
Pyz      = 1.59577 v_eb     = 0 v_ev     = 0 
v_et     = 0 v_ew     = -832.291 v_ep     = 0 
---------------- Step    69000 ----- CPU =      0.1439 (sec) ----------------
Step     =          69000 CPU      = 0.143877 Temp     =   5.0058635e-06 
Press    = -13572.8 PotEng   = -832.287 KinEng   = 1.23588e-07 
E_vdwl   = -832.287 E_coul   = 0 E_pair   = -832.287 
E_bond   = 0 E_angle  = 0 E_dihed  = 0 
Lx       = 10.8614 Ly       = 16.2924 Lz       = 22.0233 
Volume   = 3897.2 Pxx      = -10100 Pyy      = -10114.1 
Pzz      = -20504.2 Pxy      = 1.30938 Pxz      = -1.28609 
Pyz      = 3.722 v_eb     = 0 v_ev     = 0 
v_et     = 0 v_ew     = -832.287 v_ep     = 0 
---------------- Step    69500 ----- CPU =      0.2342 (sec) ----------------
Step     =          69500 CPU      = 0.234219 Temp     =   5.1872509e-06 
Press    = -13616.8 PotEng   = -832.284 KinEng   = 1.28066e-07 
E_vdwl   = -832.284 E_coul   = 0 E_pair   = -832.284 
E_bond   = 0 E_angle  = 0 E_dihed  = 0 
Lx       = 10.861 Ly       = 16.2921 Lz       = 22.0254 
Volume   = 3897.37 Pxx      = -10109.6 Pyy      = -10132.5 
Pzz      = -20608.2 Pxy      = 0.0554415 Pxz      = -2.30147 
Pyz      = 7.18481 v_eb     = 0 v_ev     = 0 
v_et     = 0 v_ew     = -832.284 v_ep     = 0 
---------------- Step    70000 ----- CPU =      0.3247 (sec) ----------------
Step     =          70000 CPU      = 0.324718 Temp     =    4.252849e-06 
Press    = -13660.7 PotEng   = -832.28 KinEng   = 1.04997e-07 
E_vdwl   = -832.28 E_coul   = 0 E_pair   = -832.28 
E_bond   = 0 E_angle  = 0 E_dihed  = 0 
Lx       = 10.8607 Ly       = 16.2918 Lz       = 22.0274 
Volume   = 3897.55 Pxx      = -10119.1 Pyy      = -10150.9 
Pzz      = -20712.1 Pxy      = -1.76406 Pxz      = -3.19046 
Pyz      = 9.93231 v_eb     = 0 v_ev     = 0 
v_et     = 0 v_ew     = -832.28 v_ep     = 0 
---------------- Step    70500 ----- CPU =      0.4155 (sec) ----------------
Step     =          70500 CPU      = 0.415512 Temp     =   4.7215672e-06 
Press    = -13704.7 PotEng   = -832.277 KinEng   = 1.16569e-07 
E_vdwl   = -832.277 E_coul   = 0 E_pair   = -832.277 
E_bond   = 0 E_angle  = 0 E_dihed  = 0 
Lx       = 10.8604 Ly       = 16.2915 Lz       = 22.0295 
Volume   = 3897.72 Pxx      = -10128.6 Pyy      = -10169.4 
Pzz      = -20816.1 Pxy      = 1.54493 Pxz      = -3.92038 
Pyz      = 11.8124 v_eb     = 0 v_ev     = 0 
v_et     = 0 v_ew     = -832.277 v_ep     = 0 
---------------- Step    71000 ----- CPU =      0.5061 (sec) ----------------
Step     =          71000 CPU      = 0.506122 Temp     =   5.1589625e-06 
Press    = -13748.6 PotEng   = -832.273 KinEng   = 1.27368e-07 
E_vdwl   = -832.273 E_coul   = 0 E_pair   = -832.273 
E_bond   = 0 E_angle  = 0 E_dihed  = 0 
Lx       = 10.8601 Ly       = 16.2912 Lz       = 22.0316 
Volume   = 3897.9 Pxx      = -10138.1 Pyy      = -10187.8 
Pzz      = -20920.1 Pxy      = -0.845388 Pxz      = -4.88544 
Pyz      = 14.9914 v_eb     = 0 v_ev     = 0 
v_et     = 0 v_ew     = -832.273 v_ep     = 0 
---------------- Step    71500 ----- CPU =      0.5973 (sec) ----------------
Step     =          71500 CPU      = 0.597314 Temp     =   4.1476558e-06 
Press    = -13792.6 PotEng   = -832.27 KinEng   = 1.024e-07 
E_vdwl   = -832.27 E_coul   = 0 E_pair   = -832.27 
E_bond   = 0 E_angle  = 0 E_dihed  = 0 
Lx       = 10.8597 Ly       = 16.2909 Lz       = 22.0336 
Volume   = 3898.07 Pxx      = -10147.6 Pyy      = -10206.2 
Pzz      = -21024 Pxy      = -1.35239 Pxz      = -5.84856 
Pyz      = 18.1618 v_eb     = 0 v_ev     = 0 
v_et     = 0 v_ew     = -832.27 v_ep     = 0 
---------------- Step    72000 ----- CPU =      0.6877 (sec) ----------------
Step     =          72000 CPU      = 0.687721 Temp     =   3.8764338e-06 
Press    = -13836.5 PotEng   = -832.266 KinEng   = 9.57041e-08 
E_vdwl   = -832.266 E_coul   = 0 E_pair   = -832.266 
E_bond   = 0 E_angle  = 0 E_dihed  = 0 
Lx       = 10.8594 Ly       = 16.2906 Lz       = 22.0357 
Volume   = 3898.24 Pxx      = -10157 Pyy      = -10224.5 
Pzz      = -21127.9 Pxy      = 1.5103 Pxz      = -6.57742 
Pyz      = 20.0339 v_eb     = 0 v_ev     = 0 
v_et     = 0 v_ew     = -832.266 v_ep     = 0 
---------------- Step    72500 ----- CPU =      0.7785 (sec) ----------------
Step     =          72500 CPU      = 0.778476 Temp     =   4.8087258e-06 
Press    = -13880.4 PotEng   = -832.263 KinEng   = 1.18721e-07 
E_vdwl   = -832.263 E_coul   = 0 E_pair   = -832.263 
E_bond   = 0 E_angle  = 0 E_dihed  = 0 
Lx       = 10.8591 Ly       = 16.2903 Lz       = 22.0377 
Volume   = 3898.42 Pxx      = -10166.5 Pyy      = -10242.9 
Pzz      = -21231.9 Pxy      = -1.72872 Pxz      = -7.47211 
Pyz      = 22.8089 v_eb     = 0 v_ev     = 0 
v_et     = 0 v_ew     = -832.263 v_ep     = 0 
---------------- Step    73000 ----- CPU =      0.8695 (sec) ----------------
Step     =          73000 CPU      = 0.869567 Temp     =   4.2589296e-06 
Press    = -13924.3 PotEng   = -832.259 KinEng   = 1.05147e-07 
E_vdwl   = -832.259 E_coul   = 0 E_pair   = -832.259 
E_bond   = 0 E_angle  = 0 E_dihed  = 0 
Lx       = 10.8587 Ly       = 16.29 Lz       = 22.0398 
Volume   = 3898.59 Pxx      = -10175.9 Pyy      = -10261.2 
Pzz      = -21335.8 Pxy      = -0.649519 Pxz      = -8.4824 
Pyz      = 26.2582 v_eb     = 0 v_ev     = 0 
v_et     = 0 v_ew     = -832.259 v_ep     = 0 
---------------- Step    73500 ----- CPU =      0.9602 (sec) ----------------
Step     =          73500 CPU      = 0.960213 Temp     =   4.7349694e-06 
Press    = -13968.2 PotEng   = -832.255 KinEng   = 1.169e-07 
E_vdwl   = -832.255 E_coul   = 0 E_pair   = -832.255 
E_bond   = 0 E_angle  = 0 E_dihed  = 0 
Lx       = 10.8584 Ly       = 16.2897 Lz       = 22.0418 
Volume   = 3898.76 Pxx      = -10185.3 Pyy      = -10279.5 
Pzz      = -21439.8 Pxy      = 1.05458 Pxz      = -9.2472 
Pyz      = 28.3283 v_eb     = 0 v_ev     = 0 
v_et     = 0 v_ew     = -832.255 v_ep     = 0 
---------------- Step    74000 ----- CPU =      1.0510 (sec) ----------------
Step     =          74000 CPU      = 1.05104 Temp     =    4.384366e-06 
Press    = -14012.1 PotEng   = -832.252 KinEng   = 1.08244e-07 
E_vdwl   = -832.252 E_coul   = 0 E_pair   = -832.252 
E_bond   = 0 E_angle  = 0 E_dihed  = 0 
Lx       = 10.8581 Ly       = 16.2894 Lz       = 22.0439 
Volume   = 3898.94 Pxx      = -10194.8 Pyy      = -10297.8 
Pzz      = -21543.7 Pxy      = -2.36567 Pxz      = -10.0713 
Pyz      = 30.6971 v_eb     = 0 v_ev     = 0 
v_et     = 0 v_ew     = -832.252 v_ep     = 0 
---------------- Step    74500 ----- CPU =      1.1416 (sec) ----------------
Step     =          74500 CPU      = 1.14163 Temp     =   4.5981247e-06 
Press    = -14056 PotEng   = -832.248 KinEng   = 1.13522e-07 
E_vdwl   = -832.248 E_coul   = 0 E_pair   = -832.248 
E_bond   = 0 E_angle  = 0 E_dihed  = 0 
Lx       = 10.8577 Ly       = 16.2891 Lz       = 22.0459 
Volume   = 3899.11 Pxx      = -10204.2 Pyy      = -10316.1 
Pzz      = -21647.6 Pxy      = 0.196021 Pxz      = -11.0949 
Pyz      = 34.2357 v_eb     = 0 v_ev     = 0 
v_et     = 0 v_ew     = -832.248 v_ep     = 0 
---------------- Step    75000 ----- CPU =      1.2322 (sec) ----------------
Step     =          75000 CPU      = 1.2322 Temp     =   4.2246556e-06 
Press    = -14099.8 PotEng   = -832.244 KinEng   = 1.04301e-07 
E_vdwl   = -832.244 E_coul   = 0 E_pair   = -832.244 
E_bond   = 0 E_angle  = 0 E_dihed  = 0 
Lx       = 10.8574 Ly       = 16.2888 Lz       = 22.048 
Volume   = 3899.28 Pxx      = -10213.6 Pyy      = -10334.4 
Pzz      = -21751.5 Pxy      = 0.119311 Pxz      = -11.9193 
Pyz      = 36.6331 v_eb     = 0 v_ev     = 0 
v_et     = 0 v_ew     = -832.244 v_ep     = 0 
---------------- Step    75500 ----- CPU =      1.3227 (sec) ----------------
Step     =          75500 CPU      = 1.32273 Temp     =   4.2889644e-06 
Press    = -14143.7 PotEng   = -832.24 KinEng   = 1.05889e-07 
E_vdwl   = -832.24 E_coul   = 0 E_pair   = -832.24 
E_bond   = 0 E_angle  = 0 E_dihed  = 0 
Lx       = 10.8571 Ly       = 16.2885 Lz       = 22.05 
Volume   = 3899.46 Pxx      = -10222.9 Pyy      = -10352.7 
Pzz      = -21855.4 Pxy      = -2.49563 Pxz      = -12.6866 
Pyz      = 38.6834 v_eb     = 0 v_ev     = 0 
v_et     = 0 v_ew     = -832.24 v_ep     = 0 
---------------- Step    76000 ----- CPU =      1.4134 (sec) ----------------
Step     =          76000 CPU      = 1.41344 Temp     =   4.1047655e-06 
Press    = -14187.5 PotEng   = -832.237 KinEng   = 1.01341e-07 
E_vdwl   = -832.237 E_coul   = 0 E_pair   = -832.237 
E_bond   = 0 E_angle  = 0 E_dihed  = 0 
Lx       = 10.8567 Ly       = 16.2882 Lz       = 22.0521 
Volume   = 3899.63 Pxx      = -10232.3 Pyy      = -10370.9 
Pzz      = -21959.3 Pxy      = 0.875984 Pxz      = -13.6933 
Pyz      = 42.1328 v_eb     = 0 v_ev     = 0 
v_et     = 0 v_ew     = -832.237 v_ep     = 0 
---------------- Step    76500 ----- CPU =      1.5060 (sec) ----------------
Step     =          76500 CPU      = 1.50597 Temp     =   5.2876039e-06 
Press    = -14231.4 PotEng   = -832.233 KinEng   = 1.30544e-07 
E_vdwl   = -832.233 E_coul   = 0 E_pair   = -832.233 
E_bond   = 0 E_angle  = 0 E_dihed  = 0 
Lx       = 10.8564 Ly       = 16.2879 Lz       = 22.0541 
Volume   = 3899.8 Pxx      = -10241.7 Pyy      = -10389.1 
Pzz      = -22063.3 Pxy      = -1.15517 Pxz      = -14.5854 
Pyz      = 44.8986 v_eb     = 0 v_ev     = 0 
v_et     = 0 v_ew     = -832.233 v_ep     = 0 
---------------- Step    77000 ----- CPU =      1.5979 (sec) ----------------
Step     =          77000 CPU      = 1.5979 Temp     =   5.7126883e-06 
Press    = -14275.2 PotEng   = -832.229 KinEng   = 1.41039e-07 
E_vdwl   = -832.229 E_coul   = 0 E_pair   = -832.229 
E_bond   = 0 E_angle  = 0 E_dihed  = 0 
Lx       = 10.8561 Ly       = 16.2876 Lz       = 22.0562 
Volume   = 3899.98 Pxx      = -10251 Pyy      = -10407.4 
Pzz      = -22167.2 Pxy      = -1.96022 Pxz      = -15.3167 
Pyz      = 46.7658 v_eb     = 0 v_ev     = 0 
v_et     = 0 v_ew     = -832.229 v_ep     = 0 
---------------- Step    77500 ----- CPU =      1.6885 (sec) ----------------
Step     =          77500 CPU      = 1.68849 Temp     =   4.5232719e-06 
Press    = -14319 PotEng   = -832.225 KinEng   = 1.11674e-07 
E_vdwl   = -832.225 E_coul   = 0 E_pair   = -832.225 
E_bond   = 0 E_angle  = 0 E_dihed  = 0 
Lx       = 10.8558 Ly       = 16.2873 Lz       = 22.0582 
Volume   = 3900.15 Pxx      = -10260.3 Pyy      = -10425.5 
Pzz      = -22271.1 Pxy      = 0.993768 Pxz      = -16.2867 
Pyz      = 49.9952 v_eb     = 0 v_ev     = 0 
v_et     = 0 v_ew     = -832.225 v_ep     = 0 
---------------- Step    78000 ----- CPU =      1.7792 (sec) ----------------
Step     =          78000 CPU      = 1.77917 Temp     =   5.5130637e-06 
Press    = -14362.8 PotEng   = -832.222 KinEng   = 1.3611e-07 
E_vdwl   = -832.222 E_coul   = 0 E_pair   = -832.222 
E_bond   = 0 E_angle  = 0 E_dihed  = 0 
Lx       = 10.8554 Ly       = 16.2871 Lz       = 22.0603 
Volume   = 3900.32 Pxx      = -10269.7 Pyy      = -10443.7 
Pzz      = -22374.9 Pxy      = -2.37212 Pxz      = -17.2401 
Pyz      = 53.0962 v_eb     = 0 v_ev     = 0 
v_et     = 0 v_ew     = -832.222 v_ep     = 0 
---------------- Step    78500 ----- CPU =      1.8694 (sec) ----------------
Step     =          78500 CPU      = 1.86942 Temp     =   4.5577665e-06 
Press    = -14406.6 PotEng   = -832.218 KinEng   = 1.12525e-07 
E_vdwl   = -832.218 E_coul   = 0 E_pair   = -832.218 
E_bond   = 0 E_angle  = 0 E_dihed  = 0 
Lx       = 10.8551 Ly       = 16.2868 Lz       = 22.0623 
Volume   = 3900.5 Pxx      = -10279 Pyy      = -10461.9 
Pzz      = -22478.8 Pxy      = -0.880791 Pxz      = -17.9576 
Pyz      = 54.9232 v_eb     = 0 v_ev     = 0 
v_et     = 0 v_ew     = -832.218 v_ep     = 0 
---------------- Step    79000 ----- CPU =      1.9607 (sec) ----------------
Step     =          79000 CPU      = 1.96073 Temp     =   4.8399286e-06 
Press    = -14450.3 PotEng   = -832.214 KinEng   = 1.19491e-07 
E_vdwl   = -832.214 E_coul   = 0 E_pair   = -832.214 
E_bond   = 0 E_angle  = 0 E_dihed  = 0 
Lx       = 10.8548 Ly       = 16.2865 Lz       = 22.0644 
Volume   = 3900.67 Pxx      = -10288.3 Pyy      = -10480 
Pzz      = -22582.7 Pxy      = 0.267031 Pxz      = -18.8827 
Pyz      = 57.8624 v_eb     = 0 v_ev     = 0 
v_et     = 0 v_ew     = -832.214 v_ep     = 0 
---------------- Step    79500 ----- CPU =      2.0515 (sec) ----------------
Step     =          79500 CPU      = 2.05149 Temp     =    4.161993e-06 
Press    = -14494.1 PotEng   = -832.21 KinEng   = 1.02754e-07 
E_vdwl   = -832.21 E_coul   = 0 E_pair   = -832.21 
E_bond   = 0 E_angle  = 0 E_dihed  = 0 
Lx       = 10.8544 Ly       = 16.2862 Lz       = 22.0664 
Volume   = 3900.84 Pxx      = -10297.6 Pyy      = -10498.2 
Pzz      = -22686.6 Pxy      = -2.97199 Pxz      = -19.881 
Pyz      = 61.2174 v_eb     = 0 v_ev     = 0 
v_et     = 0 v_ew     = -832.21 v_ep     = 0 
---------------- Step    80000 ----- CPU =      2.1418 (sec) ----------------
Step     =          80000 CPU      = 2.14181 Temp     =   4.9139273e-06 
Press    = -14537.9 PotEng   = -832.206 KinEng   = 1.21318e-07 
E_vdwl   = -832.206 E_coul   = 0 E_pair   = -832.206 
E_bond   = 0 E_angle  = 0 E_dihed  = 0 
Lx       = 10.8541 Ly       = 16.2859 Lz       = 22.0685 
Volume   = 3901.01 Pxx      = -10306.8 Pyy      = -10516.3 
Pzz      = -22790.5 Pxy      = 0.236177 Pxz      = -20.6054 
Pyz      = 63.1265 v_eb     = 0 v_ev     = 0 
v_et     = 0 v_ew     = -832.206 v_ep     = 0 
---------------- Step    80500 ----- CPU =      2.2324 (sec) ----------------
Step     =          80500 CPU      = 2.23238 Temp     =   5.3083807e-06 
Press    = -14581.6 PotEng   = -832.202 KinEng   = 1.31057e-07 
E_vdwl   = -832.202 E_coul   = 0 E_pair   = -832.202 
E_bond   = 0 E_angle  = 0 E_dihed  = 0 
Lx       = 10.8538 Ly       = 16.2856 Lz       = 22.0706 
Volume   = 3901.19 Pxx      = -10316.1 Pyy      = -10534.4 
Pzz      = -22894.3 Pxy      = -1.19253 Pxz      = -21.4858 
Pyz      = 65.7615 v_eb     = 0 v_ev     = 0 
v_et     = 0 v_ew     = -832.202 v_ep     = 0 
---------------- Step    81000 ----- CPU =      2.3227 (sec) ----------------
Step     =          81000 CPU      = 2.32272 Temp     =   4.4794809e-06 
Press    = -14625.3 PotEng   = -832.198 KinEng   = 1.10593e-07 
E_vdwl   = -832.198 E_coul   = 0 E_pair   = -832.198 
E_bond   = 0 E_angle  = 0 E_dihed  = 0 
Lx       = 10.8534 Ly       = 16.2853 Lz       = 22.0726 
Volume   = 3901.36 Pxx      = -10325.3 Pyy      = -10552.5 
Pzz      = -22998.2 Pxy      = -2.54019 Pxz      = -22.5076 
Pyz      = 69.2691 v_eb     = 0 v_ev     = 0 
v_et     = 0 v_ew     = -832.198 v_ep     = 0 
---------------- Step    81500 ----- CPU =      2.4138 (sec) ----------------
Step     =          81500 CPU      = 2.41379 Temp     =   4.8105759e-06 
Press    = -14669.1 PotEng   = -832.194 KinEng   = 1.18767e-07 
E_vdwl   = -832.194 E_coul   = 0 E_pair   = -832.194 
E_bond   = 0 E_angle  = 0 E_dihed  = 0 
Lx       = 10.8531 Ly       = 16.285 Lz       = 22.0747 
Volume   = 3901.53 Pxx      = -10334.6 Pyy      = -10570.5 
Pzz      = -23102.1 Pxy      = 0.638687 Pxz      = -23.2575 
Pyz      = 71.3474 v_eb     = 0 v_ev     = 0 
v_et     = 0 v_ew     = -832.194 v_ep     = 0 
---------------- Step    82000 ----- CPU =      2.5048 (sec) ----------------
Step     =          82000 CPU      = 2.50478 Temp     =    4.602826e-06 
Press    = -14712.8 PotEng   = -832.19 KinEng   = 1.13638e-07 
E_vdwl   = -832.19 E_coul   = 0 E_pair   = -832.19 
E_bond   = 0 E_angle  = 0 E_dihed  = 0 
Lx       = 10.8528 Ly       = 16.2847 Lz       = 22.0767 
Volume   = 3901.71 Pxx      = -10343.8 Pyy      = -10588.6 
Pzz      = -23205.9 Pxy      = -2.72225 Pxz      = -24.0966 
Pyz      = 73.7055 v_eb     = 0 v_ev     = 0 
v_et     = 0 v_ew     = -832.19 v_ep     = 0 
---------------- Step    82500 ----- CPU =      2.5965 (sec) ----------------
Step     =          82500 CPU      = 2.59649 Temp     =   4.5326013e-06 
Press    = -14756.5 PotEng   = -832.186 KinEng   = 1.11904e-07 
E_vdwl   = -832.186 E_coul   = 0 E_pair   = -832.186 
E_bond   = 0 E_angle  = 0 E_dihed  = 0 
Lx       = 10.8524 Ly       = 16.2844 Lz       = 22.0788 
Volume   = 3901.88 Pxx      = -10353 Pyy      = -10606.6 
Pzz      = -23309.8 Pxy      = -1.22567 Pxz      = -25.1225 
Pyz      = 77.2676 v_eb     = 0 v_ev     = 0 
v_et     = 0 v_ew     = -832.186 v_ep     = 0 
---------------- Step    83000 ----- CPU =      2.6873 (sec) ----------------
Step     =          83000 CPU      = 2.68729 Temp     =   4.6707443e-06 
Press    = -14800.2 PotEng   = -832.182 KinEng   = 1.15315e-07 
E_vdwl   = -832.182 E_coul   = 0 E_pair   = -832.182 
E_bond   = 0 E_angle  = 0 E_dihed  = 0 
Lx       = 10.8521 Ly       = 16.2841 Lz       = 22.0808 
Volume   = 3902.05 Pxx      = -10362.2 Pyy      = -10624.6 
Pzz      = -23413.6 Pxy      = -0.198653 Pxz      = -25.9126 
Pyz      = 79.5637 v_eb     = 0 v_ev     = 0 
v_et     = 0 v_ew     = -832.182 v_ep     = 0 
---------------- Step    83500 ----- CPU =      2.7784 (sec) ----------------
Step     =          83500 CPU      = 2.77843 Temp     =   4.6816114e-06 
Press    = -14843.8 PotEng   = -832.178 KinEng   = 1.15583e-07 
E_vdwl   = -832.178 E_coul   = 0 E_pair   = -832.178 
E_bond   = 0 E_angle  = 0 E_dihed  = 0 
Lx       = 10.8518 Ly       = 16.2838 Lz       = 22.0829 
Volume   = 3902.22 Pxx      = -10371.4 Pyy      = -10642.6 
Pzz      = -23517.5 Pxy      = -3.35035 Pxz      = -26.7118 
Pyz      = 81.695 v_eb     = 0 v_ev     = 0 
v_et     = 0 v_ew     = -832.178 v_ep     = 0 
---------------- Step    84000 ----- CPU =      2.8690 (sec) ----------------
Step     =          84000 CPU      = 2.86902 Temp     =   4.7219332e-06 
Press    = -14887.5 PotEng   = -832.174 KinEng   = 1.16578e-07 
E_vdwl   = -832.174 E_coul   = 0 E_pair   = -832.174 
E_bond   = 0 E_angle  = 0 E_dihed  = 0 
Lx       = 10.8515 Ly       = 16.2835 Lz       = 22.0849 
Volume   = 3902.4 Pxx      = -10380.6 Pyy      = -10660.6 
Pzz      = -23621.3 Pxy      = 0.0730686 Pxz      = -27.7314 
Pyz      = 85.2323 v_eb     = 0 v_ev     = 0 
v_et     = 0 v_ew     = -832.174 v_ep     = 0 
---------------- Step    84500 ----- CPU =      2.9598 (sec) ----------------
Step     =          84500 CPU      = 2.95977 Temp     =   4.6007896e-06 
Press    = -14931.2 PotEng   = -832.17 KinEng   = 1.13587e-07 
E_vdwl   = -832.17 E_coul   = 0 E_pair   = -832.17 
E_bond   = 0 E_angle  = 0 E_dihed  = 0 
Lx       = 10.8511 Ly       = 16.2832 Lz       = 22.087 
Volume   = 3902.57 Pxx      = -10389.8 Pyy      = -10678.6 
Pzz      = -23725.1 Pxy      = -1.985 Pxz      = -28.5679 
Pyz      = 87.7604 v_eb     = 0 v_ev     = 0 
v_et     = 0 v_ew     = -832.17 v_ep     = 0 
---------------- Step    85000 ----- CPU =      3.0504 (sec) ----------------
Step     =          85000 CPU      = 3.05041 Temp     =   4.8975743e-06 
Press    = -14974.8 PotEng   = -832.166 KinEng   = 1.20915e-07 
E_vdwl   = -832.166 E_coul   = 0 E_pair   = -832.166 
E_bond   = 0 E_angle  = 0 E_dihed  = 0 
Lx       = 10.8508 Ly       = 16.2829 Lz       = 22.089 
Volume   = 3902.74 Pxx      = -10398.9 Pyy      = -10696.6 
Pzz      = -23829 Pxy      = -2.51827 Pxz      = -29.328 
Pyz      = 89.7234 v_eb     = 0 v_ev     = 0 
v_et     = 0 v_ew     = -832.166 v_ep     = 0 
---------------- Step    85500 ----- CPU =      3.1412 (sec) ----------------
Step     =          85500 CPU      = 3.14123 Temp     =   3.9181507e-06 
Press    = -15018.5 PotEng   = -832.161 KinEng   = 9.6734e-08 
E_vdwl   = -832.161 E_coul   = 0 E_pair   = -832.161 
E_bond   = 0 E_angle  = 0 E_dihed  = 0 
Lx       = 10.8505 Ly       = 16.2826 Lz       = 22.0911 
Volume   = 3902.92 Pxx      = -10408.1 Pyy      = -10714.5 
Pzz      = -23932.8 Pxy      = 0.16281 Pxz      = -30.3416 
Pyz      = 93.1821 v_eb     = 0 v_ev     = 0 
v_et     = 0 v_ew     = -832.161 v_ep     = 0 
---------------- Step    86000 ----- CPU =      3.2324 (sec) ----------------
Step     =          86000 CPU      = 3.23245 Temp     =    4.598534e-06 
Press    = -15062.1 PotEng   = -832.157 KinEng   = 1.13532e-07 
E_vdwl   = -832.157 E_coul   = 0 E_pair   = -832.157 
E_bond   = 0 E_angle  = 0 E_dihed  = 0 
Lx       = 10.8501 Ly       = 16.2823 Lz       = 22.0931 
Volume   = 3903.09 Pxx      = -10417.2 Pyy      = -10732.4 
Pzz      = -24036.6 Pxy      = -3.48311 Pxz      = -31.2181 
Pyz      = 95.9286 v_eb     = 0 v_ev     = 0 
v_et     = 0 v_ew     = -832.157 v_ep     = 0 
---------------- Step    86500 ----- CPU =      3.3235 (sec) ----------------
Step     =          86500 CPU      = 3.32352 Temp     =   4.5648549e-06 
Press    = -15105.7 PotEng   = -832.153 KinEng   = 1.127e-07 
E_vdwl   = -832.153 E_coul   = 0 E_pair   = -832.153 
E_bond   = 0 E_angle  = 0 E_dihed  = 0 
Lx       = 10.8498 Ly       = 16.282 Lz       = 22.0952 
Volume   = 3903.26 Pxx      = -10426.3 Pyy      = -10750.3 
Pzz      = -24140.4 Pxy      = -0.834668 Pxz      = -31.9451 
Pyz      = 97.7815 v_eb     = 0 v_ev     = 0 
v_et     = 0 v_ew     = -832.153 v_ep     = 0 
---------------- Step    87000 ----- CPU =      3.4149 (sec) ----------------
Step     =          87000 CPU      = 3.41492 Temp     =    5.709241e-06 
Press    = -15149.3 PotEng   = -832.149 KinEng   = 1.40954e-07 
E_vdwl   = -832.149 E_coul   = 0 E_pair   = -832.149 
E_bond   = 0 E_angle  = 0 E_dihed  = 0 
Lx       = 10.8495 Ly       = 16.2817 Lz       = 22.0972 
Volume   = 3903.43 Pxx      = -10435.4 Pyy      = -10768.2 
Pzz      = -24244.2 Pxy      = -1.37398 Pxz      = -32.9577 
Pyz      = 101.131 v_eb     = 0 v_ev     = 0 
v_et     = 0 v_ew     = -832.149 v_ep     = 0 
---------------- Step    87500 ----- CPU =      3.5062 (sec) ----------------
Step     =          87500 CPU      = 3.50617 Temp     =   3.8901256e-06 
Press    = -15192.9 PotEng   = -832.145 KinEng   = 9.60421e-08 
E_vdwl   = -832.145 E_coul   = 0 E_pair   = -832.145 
E_bond   = 0 E_angle  = 0 E_dihed  = 0 
Lx       = 10.8491 Ly       = 16.2814 Lz       = 22.0993 
Volume   = 3903.61 Pxx      = -10444.5 Pyy      = -10786.1 
Pzz      = -24348.1 Pxy      = -3.35919 Pxz      = -33.8574 
Pyz      = 104.065 v_eb     = 0 v_ev     = 0 
v_et     = 0 v_ew     = -832.145 v_ep     = 0 
---------------- Step    88000 ----- CPU =      3.5985 (sec) ----------------
Step     =          88000 CPU      = 3.5985 Temp     =   4.8331544e-06 
Press    = -15236.5 PotEng   = -832.14 KinEng   = 1.19324e-07 
E_vdwl   = -832.14 E_coul   = 0 E_pair   = -832.14 
E_bond   = 0 E_angle  = 0 E_dihed  = 0 
Lx       = 10.8488 Ly       = 16.2811 Lz       = 22.1013 
Volume   = 3903.78 Pxx      = -10453.6 Pyy      = -10804 
Pzz      = -24451.9 Pxy      = 0.0481885 Pxz      = -34.5677 
Pyz      = 105.86 v_eb     = 0 v_ev     = 0 
v_et     = 0 v_ew     = -832.14 v_ep     = 0 
---------------- Step    88500 ----- CPU =      3.6898 (sec) ----------------
Step     =          88500 CPU      = 3.68978 Temp     =   6.2471781e-06 
Press    = -15280.1 PotEng   = -832.136 KinEng   = 1.54235e-07 
E_vdwl   = -832.136 E_coul   = 0 E_pair   = -832.136 
E_bond   = 0 E_angle  = 0 E_dihed  = 0 
Lx       = 10.8485 Ly       = 16.2808 Lz       = 22.1034 
Volume   = 3903.95 Pxx      = -10462.7 Pyy      = -10821.8 
Pzz      = -24555.7 Pxy      = -3.37937 Pxz      = -35.577 
Pyz      = 109.088 v_eb     = 0 v_ev     = 0 
v_et     = 0 v_ew     = -832.136 v_ep     = 0 
---------------- Step    89000 ----- CPU =      3.7812 (sec) ----------------
Step     =          89000 CPU      = 3.78117 Temp     =   4.3590422e-06 
Press    = -15323.6 PotEng   = -832.132 KinEng   = 1.07619e-07 
E_vdwl   = -832.132 E_coul   = 0 E_pair   = -832.132 
E_bond   = 0 E_angle  = 0 E_dihed  = 0 
Lx       = 10.8481 Ly       = 16.2805 Lz       = 22.1055 
Volume   = 3904.12 Pxx      = -10471.7 Pyy      = -10839.6 
Pzz      = -24659.4 Pxy      = -1.64481 Pxz      = -36.4853 
Pyz      = 112.173 v_eb     = 0 v_ev     = 0 
v_et     = 0 v_ew     = -832.132 v_ep     = 0 
---------------- Step    89500 ----- CPU =      3.8719 (sec) ----------------
Step     =          89500 CPU      = 3.87186 Temp     =   4.7553458e-06 
Press    = -15367.2 PotEng   = -832.127 KinEng   = 1.17403e-07 
E_vdwl   = -832.127 E_coul   = 0 E_pair   = -832.127 
E_bond   = 0 E_angle  = 0 E_dihed  = 0 
Lx       = 10.8478 Ly       = 16.2802 Lz       = 22.1075 
Volume   = 3904.3 Pxx      = -10480.8 Pyy      = -10857.5 
Pzz      = -24763.2 Pxy      = -1.09079 Pxz      = -37.2001 
Pyz      = 113.951 v_eb     = 0 v_ev     = 0 
v_et     = 0 v_ew     = -832.127 v_ep     = 0 
---------------- Step    90000 ----- CPU =      3.9637 (sec) ----------------
Step     =          90000 CPU      = 3.96372 Temp     =   4.8334043e-06 
Press    = -15410.7 PotEng   = -832.123 KinEng   = 1.1933e-07 
E_vdwl   = -832.123 E_coul   = 0 E_pair   = -832.123 
E_bond   = 0 E_angle  = 0 E_dihed  = 0 
Lx       = 10.8475 Ly       = 16.2799 Lz       = 22.1096 
Volume   = 3904.47 Pxx      = -10489.8 Pyy      = -10875.3 
Pzz      = -24867 Pxy      = -3.85226 Pxz      = -38.1918 
Pyz      = 117.055 v_eb     = 0 v_ev     = 0 
v_et     = 0 v_ew     = -832.123 v_ep     = 0 
---------------- Step    90500 ----- CPU =      4.0551 (sec) ----------------
Step     =          90500 CPU      = 4.05513 Temp     =   4.9492667e-06 
Press    = -15454.2 PotEng   = -832.119 KinEng   = 1.22191e-07 
E_vdwl   = -832.119 E_coul   = 0 E_pair   = -832.119 
E_bond   = 0 E_angle  = 0 E_dihed  = 0 
Lx       = 10.8472 Ly       = 16.2796 Lz       = 22.1116 
Volume   = 3904.64 Pxx      = -10498.9 Pyy      = -10893 
Pzz      = -24970.8 Pxy      = -0.239961 Pxz      = -39.1105 
Pyz      = 120.259 v_eb     = 0 v_ev     = 0 
v_et     = 0 v_ew     = -832.119 v_ep     = 0 
---------------- Step    91000 ----- CPU =      4.1457 (sec) ----------------
Step     =          91000 CPU      = 4.14568 Temp     =   4.5486522e-06 
Press    = -15497.8 PotEng   = -832.114 KinEng   = 1.123e-07 
E_vdwl   = -832.114 E_coul   = 0 E_pair   = -832.114 
E_bond   = 0 E_angle  = 0 E_dihed  = 0 
Lx       = 10.8468 Ly       = 16.2793 Lz       = 22.1137 
Volume   = 3904.81 Pxx      = -10507.9 Pyy      = -10910.8 
Pzz      = -25074.6 Pxy      = -3.35147 Pxz      = -39.8377 
Pyz      = 122.045 v_eb     = 0 v_ev     = 0 
v_et     = 0 v_ew     = -832.114 v_ep     = 0 
---------------- Step    91500 ----- CPU =      4.2361 (sec) ----------------
Step     =          91500 CPU      = 4.23612 Temp     =   5.5770599e-06 
Press    = -15541.3 PotEng   = -832.11 KinEng   = 1.3769e-07 
E_vdwl   = -832.11 E_coul   = 0 E_pair   = -832.11 
E_bond   = 0 E_angle  = 0 E_dihed  = 0 
Lx       = 10.8465 Ly       = 16.2791 Lz       = 22.1157 
Volume   = 3904.98 Pxx      = -10516.9 Pyy      = -10928.6 
Pzz      = -25178.3 Pxy      = -2.18991 Pxz      = -40.7991 
Pyz      = 125.033 v_eb     = 0 v_ev     = 0 
v_et     = 0 v_ew     = -832.11 v_ep     = 0 
---------------- Step    92000 ----- CPU =      4.3264 (sec) ----------------
Step     =          92000 CPU      = 4.32642 Temp     =   4.1426205e-06 
Press    = -15584.8 PotEng   = -832.105 KinEng   = 1.02276e-07 
E_vdwl   = -832.105 E_coul   = 0 E_pair   = -832.105 
E_bond   = 0 E_angle  = 0 E_dihed  = 0 
Lx       = 10.8462 Ly       = 16.2788 Lz       = 22.1178 
Volume   = 3905.16 Pxx      = -10525.9 Pyy      = -10946.3 
Pzz      = -25282.1 Pxy      = -1.10915 Pxz      = -41.7428 
Pyz      = 128.331 v_eb     = 0 v_ev     = 0 
v_et     = 0 v_ew     = -832.105 v_ep     = 0 
---------------- Step    92500 ----- CPU =      4.4174 (sec) ----------------
Step     =          92500 CPU      = 4.41739 Temp     =   4.9238072e-06 
Press    = -15628.2 PotEng   = -832.101 KinEng   = 1.21562e-07 
E_vdwl   = -832.101 E_coul   = 0 E_pair   = -832.101 
E_bond   = 0 E_angle  = 0 E_dihed  = 0 
Lx       = 10.8458 Ly       = 16.2785 Lz       = 22.1198 
Volume   = 3905.33 Pxx      = -10534.9 Pyy      = -10964 
Pzz      = -25385.9 Pxy      = -4.16179 Pxz      = -42.4677 
Pyz      = 130.131 v_eb     = 0 v_ev     = 0 
v_et     = 0 v_ew     = -832.101 v_ep     = 0 
---------------- Step    93000 ----- CPU =      4.5089 (sec) ----------------
Step     =          93000 CPU      = 4.50887 Temp     =   4.8914397e-06 
Press    = -15671.7 PotEng   = -832.096 KinEng   = 1.20763e-07 
E_vdwl   = -832.096 E_coul   = 0 E_pair   = -832.096 
E_bond   = 0 E_angle  = 0 E_dihed  = 0 
Lx       = 10.8455 Ly       = 16.2782 Lz       = 22.1219 
Volume   = 3905.5 Pxx      = -10543.8 Pyy      = -10981.7 
Pzz      = -25489.6 Pxy      = -0.504769 Pxz      = -43.4085 
Pyz      = 133.026 v_eb     = 0 v_ev     = 0 
v_et     = 0 v_ew     = -832.096 v_ep     = 0 
---------------- Step    93500 ----- CPU =      4.6002 (sec) ----------------
Step     =          93500 CPU      = 4.60025 Temp     =   5.6546613e-06 
Press    = -15715.2 PotEng   = -832.092 KinEng   = 1.39606e-07 
E_vdwl   = -832.092 E_coul   = 0 E_pair   = -832.092 
E_bond   = 0 E_angle  = 0 E_dihed  = 0 
Lx       = 10.8452 Ly       = 16.2779 Lz       = 22.1239 
Volume   = 3905.67 Pxx      = -10552.8 Pyy      = -10999.4 
Pzz      = -25593.4 Pxy      = -3.53749 Pxz      = -44.3804 
Pyz      = 136.393 v_eb     = 0 v_ev     = 0 
v_et     = 0 v_ew     = -832.092 v_ep     = 0 
---------------- Step    94000 ----- CPU =      4.6907 (sec) ----------------
Step     =          94000 CPU      = 4.69073 Temp     =   5.6556369e-06 
Press    = -15758.6 PotEng   = -832.087 KinEng   = 1.3963e-07 
E_vdwl   = -832.087 E_coul   = 0 E_pair   = -832.087 
E_bond   = 0 E_angle  = 0 E_dihed  = 0 
Lx       = 10.8448 Ly       = 16.2776 Lz       = 22.126 
Volume   = 3905.85 Pxx      = -10561.7 Pyy      = -11017.1 
Pzz      = -25697.1 Pxy      = -2.4294 Pxz      = -45.0837 
Pyz      = 138.203 v_eb     = 0 v_ev     = 0 
v_et     = 0 v_ew     = -832.087 v_ep     = 0 
---------------- Step    94500 ----- CPU =      4.7828 (sec) ----------------
Step     =          94500 CPU      = 4.78276 Temp     =   5.1644851e-06 
Press    = -15802.1 PotEng   = -832.083 KinEng   = 1.27504e-07 
E_vdwl   = -832.083 E_coul   = 0 E_pair   = -832.083 
E_bond   = 0 E_angle  = 0 E_dihed  = 0 
Lx       = 10.8445 Ly       = 16.2773 Lz       = 22.128 
Volume   = 3906.02 Pxx      = -10570.7 Pyy      = -11034.7 
Pzz      = -25800.9 Pxy      = -1.38823 Pxz      = -46.033 
Pyz      = 141.038 v_eb     = 0 v_ev     = 0 
v_et     = 0 v_ew     = -832.083 v_ep     = 0 
---------------- Step    95000 ----- CPU =      4.8735 (sec) ----------------
Step     =          95000 CPU      = 4.87349 Temp     =   4.8919684e-06 
Press    = -15845.5 PotEng   = -832.078 KinEng   = 1.20776e-07 
E_vdwl   = -832.078 E_coul   = 0 E_pair   = -832.078 
E_bond   = 0 E_angle  = 0 E_dihed  = 0 
Lx       = 10.8442 Ly       = 16.277 Lz       = 22.1301 
Volume   = 3906.19 Pxx      = -10579.6 Pyy      = -11052.4 
Pzz      = -25904.6 Pxy      = -4.3632 Pxz      = -47.0081 
Pyz      = 144.446 v_eb     = 0 v_ev     = 0 
v_et     = 0 v_ew     = -832.078 v_ep     = 0 
---------------- Step    95500 ----- CPU =      4.9643 (sec) ----------------
Step     =          95500 CPU      = 4.96427 Temp     =   4.9132182e-06 
Press    = -15888.9 PotEng   = -832.074 KinEng   = 1.21301e-07 
E_vdwl   = -832.074 E_coul   = 0 E_pair   = -832.074 
E_bond   = 0 E_angle  = 0 E_dihed  = 0 
Lx       = 10.8438 Ly       = 16.2767 Lz       = 22.1321 
Volume   = 3906.36 Pxx      = -10588.5 Pyy      = -11070 
Pzz      = -26008.3 Pxy      = -0.682413 Pxz      = -47.6971 
Pyz      = 146.263 v_eb     = 0 v_ev     = 0 
v_et     = 0 v_ew     = -832.074 v_ep     = 0 
---------------- Step    96000 ----- CPU =      5.0550 (sec) ----------------
Step     =          96000 CPU      = 5.05503 Temp     =   5.2214705e-06 
Press    = -15932.4 PotEng   = -832.069 KinEng   = 1.28911e-07 
E_vdwl   = -832.069 E_coul   = 0 E_pair   = -832.069 
E_bond   = 0 E_angle  = 0 E_dihed  = 0 
Lx       = 10.8435 Ly       = 16.2764 Lz       = 22.1342 
Volume   = 3906.53 Pxx      = -10597.4 Pyy      = -11087.6 
Pzz      = -26112.1 Pxy      = -3.96801 Pxz      = -48.6692 
Pyz      = 149.068 v_eb     = 0 v_ev     = 0 
v_et     = 0 v_ew     = -832.069 v_ep     = 0 
---------------- Step    96500 ----- CPU =      5.1457 (sec) ----------------
Step     =          96500 CPU      = 5.14568 Temp     =    4.998915e-06 
Press    = -15975.8 PotEng   = -832.064 KinEng   = 1.23417e-07 
E_vdwl   = -832.064 E_coul   = 0 E_pair   = -832.064 
E_bond   = 0 E_angle  = 0 E_dihed  = 0 
Lx       = 10.8432 Ly       = 16.2761 Lz       = 22.1362 
Volume   = 3906.71 Pxx      = -10606.3 Pyy      = -11105.2 
Pzz      = -26215.8 Pxy      = -2.35599 Pxz      = -49.6191 
Pyz      = 152.488 v_eb     = 0 v_ev     = 0 
v_et     = 0 v_ew     = -832.064 v_ep     = 0 
---------------- Step    97000 ----- CPU =      5.2362 (sec) ----------------
Step     =          97000 CPU      = 5.23625 Temp     =   4.7467763e-06 
Press    = -16019.1 PotEng   = -832.06 KinEng   = 1.17192e-07 
E_vdwl   = -832.06 E_coul   = 0 E_pair   = -832.06 
E_bond   = 0 E_angle  = 0 E_dihed  = 0 
Lx       = 10.8428 Ly       = 16.2758 Lz       = 22.1383 
Volume   = 3906.88 Pxx      = -10615.1 Pyy      = -11122.8 
Pzz      = -26319.5 Pxy      = -1.94205 Pxz      = -50.324 
Pyz      = 154.313 v_eb     = 0 v_ev     = 0 
v_et     = 0 v_ew     = -832.06 v_ep     = 0 
---------------- Step    97500 ----- CPU =      5.3271 (sec) ----------------
Step     =          97500 CPU      = 5.32713 Temp     =   5.8441918e-06 
Press    = -16062.5 PotEng   = -832.055 KinEng   = 1.44285e-07 
E_vdwl   = -832.055 E_coul   = 0 E_pair   = -832.055 
E_bond   = 0 E_angle  = 0 E_dihed  = 0 
Lx       = 10.8425 Ly       = 16.2755 Lz       = 22.1403 
Volume   = 3907.05 Pxx      = -10624 Pyy      = -11140.4 
Pzz      = -26423.2 Pxy      = -4.40877 Pxz      = -51.2969 
Pyz      = 157.107 v_eb     = 0 v_ev     = 0 
v_et     = 0 v_ew     = -832.055 v_ep     = 0 
---------------- Step    98000 ----- CPU =      5.4182 (sec) ----------------
Step     =          98000 CPU      = 5.41821 Temp     =   5.3408228e-06 
Press    = -16105.9 PotEng   = -832.05 KinEng   = 1.31858e-07 
E_vdwl   = -832.05 E_coul   = 0 E_pair   = -832.05 
E_bond   = 0 E_angle  = 0 E_dihed  = 0 
Lx       = 10.8422 Ly       = 16.2752 Lz       = 22.1424 
Volume   = 3907.22 Pxx      = -10632.9 Pyy      = -11157.9 
Pzz      = -26526.9 Pxy      = -0.855231 Pxz      = -52.2302 
Pyz      = 160.527 v_eb     = 0 v_ev     = 0 
v_et     = 0 v_ew     = -832.05 v_ep     = 0 
---------------- Step    98500 ----- CPU =      5.5090 (sec) ----------------
Step     =          98500 CPU      = 5.50897 Temp     =   4.4166404e-06 
Press    = -16149.3 PotEng   = -832.046 KinEng   = 1.09041e-07 
E_vdwl   = -832.046 E_coul   = 0 E_pair   = -832.046 
E_bond   = 0 E_angle  = 0 E_dihed  = 0 
Lx       = 10.8419 Ly       = 16.2749 Lz       = 22.1445 
Volume   = 3907.39 Pxx      = -10641.7 Pyy      = -11175.4 
Pzz      = -26630.6 Pxy      = -4.55885 Pxz      = -52.9566 
Pyz      = 162.35 v_eb     = 0 v_ev     = 0 
v_et     = 0 v_ew     = -832.046 v_ep     = 0 
---------------- Step    99000 ----- CPU =      5.6018 (sec) ----------------
Step     =          99000 CPU      = 5.60181 Temp     =   5.9518112e-06 
Press    = -16192.6 PotEng   = -832.041 KinEng   = 1.46942e-07 
E_vdwl   = -832.041 E_coul   = 0 E_pair   = -832.041 
E_bond   = 0 E_angle  = 0 E_dihed  = 0 
Lx       = 10.8415 Ly       = 16.2746 Lz       = 22.1465 
Volume   = 3907.56 Pxx      = -10650.5 Pyy      = -11193 
Pzz      = -26734.3 Pxy      = -2.00266 Pxz      = -53.9118 
Pyz      = 165.154 v_eb     = 0 v_ev     = 0 
v_et     = 0 v_ew     = -832.041 v_ep     = 0 
---------------- Step    99500 ----- CPU =      5.6924 (sec) ----------------
Step     =          99500 CPU      = 5.69242 Temp     =   4.8124886e-06 
Press    = -16235.9 PotEng   = -832.036 KinEng   = 1.18814e-07 
E_vdwl   = -832.036 E_coul   = 0 E_pair   = -832.036 
E_bond   = 0 E_angle  = 0 E_dihed  = 0 
Lx       = 10.8412 Ly       = 16.2743 Lz       = 22.1486 
Volume   = 3907.74 Pxx      = -10659.4 Pyy      = -11210.5 
Pzz      = -26838 Pxy      = -2.83406 Pxz      = -54.8579 
Pyz      = 168.568 v_eb     = 0 v_ev     = 0 
v_et     = 0 v_ew     = -832.036 v_ep     = 0 
---------------- Step   100000 ----- CPU =      5.7832 (sec) ----------------
Step     =         100000 CPU      = 5.78324 Temp     =   6.1014689e-06 
Press    = -16279.3 PotEng   = -832.031 KinEng   = 1.50637e-07 
E_vdwl   = -832.031 E_coul   = 0 E_pair   = -832.031 
E_bond   = 0 E_angle  = 0 E_dihed  = 0 
Lx       = 10.8409 Ly       = 16.274 Lz       = 22.1506 
Volume   = 3907.91 Pxx      = -10668.2 Pyy      = -11227.9 
Pzz      = -26941.7 Pxy      = -4.12857 Pxz      = -55.5711 
Pyz      = 170.367 v_eb     = 0 v_ev     = 0 
v_et     = 0 v_ew     = -832.031 v_ep     = 0 
---------------- Step   100500 ----- CPU =      5.8746 (sec) ----------------
Step     =         100500 CPU      = 5.87463 Temp     =   5.0263127e-06 
Press    = -16322.6 PotEng   = -832.027 KinEng   = 1.24093e-07 
E_vdwl   = -832.027 E_coul   = 0 E_pair   = -832.027 
E_bond   = 0 E_angle  = 0 E_dihed  = 0 
Lx       = 10.8405 Ly       = 16.2737 Lz       = 22.1527 
Volume   = 3908.08 Pxx      = -10677 Pyy      = -11245.4 
Pzz      = -27045.4 Pxy      = -1.26435 Pxz      = -56.5383 
Pyz      = 173.219 v_eb     = 0 v_ev     = 0 
v_et     = 0 v_ew     = -832.027 v_ep     = 0 
---------------- Step   101000 ----- CPU =      5.9655 (sec) ----------------
Step     =         101000 CPU      = 5.96554 Temp     =    4.438723e-06 
Press    = -16365.9 PotEng   = -832.022 KinEng   = 1.09586e-07 
E_vdwl   = -832.022 E_coul   = 0 E_pair   = -832.022 
E_bond   = 0 E_angle  = 0 E_dihed  = 0 
Lx       = 10.8402 Ly       = 16.2734 Lz       = 22.1547 
Volume   = 3908.25 Pxx      = -10685.7 Pyy      = -11262.9 
Pzz      = -27149.1 Pxy      = -5.06794 Pxz      = -57.484 
Pyz      = 176.604 v_eb     = 0 v_ev     = 0 
v_et     = 0 v_ew     = -832.022 v_ep     = 0 
---------------- Step   101500 ----- CPU =      6.0567 (sec) ----------------
Step     =         101500 CPU      = 6.05668 Temp     =    5.226954e-06 
Press    = -16409.2 PotEng   = -832.017 KinEng   = 1.29047e-07 
E_vdwl   = -832.017 E_coul   = 0 E_pair   = -832.017 
E_bond   = 0 E_angle  = 0 E_dihed  = 0 
Lx       = 10.8399 Ly       = 16.2731 Lz       = 22.1568 
Volume   = 3908.42 Pxx      = -10694.5 Pyy      = -11280.3 
Pzz      = -27252.7 Pxy      = -1.53209 Pxz      = -58.1723 
Pyz      = 178.366 v_eb     = 0 v_ev     = 0 
v_et     = 0 v_ew     = -832.017 v_ep     = 0 
---------------- Step   102000 ----- CPU =      6.1475 (sec) ----------------
Step     =         102000 CPU      = 6.14753 Temp     =   4.5439417e-06 
Press    = -16452.5 PotEng   = -832.012 KinEng   = 1.12184e-07 
E_vdwl   = -832.012 E_coul   = 0 E_pair   = -832.012 
E_bond   = 0 E_angle  = 0 E_dihed  = 0 
Lx       = 10.8395 Ly       = 16.2728 Lz       = 22.1588 
Volume   = 3908.6 Pxx      = -10703.3 Pyy      = -11297.7 
Pzz      = -27356.4 Pxy      = -4.04536 Pxz      = -59.1877 
Pyz      = 181.306 v_eb     = 0 v_ev     = 0 
v_et     = 0 v_ew     = -832.012 v_ep     = 0 
---------------- Step   102500 ----- CPU =      6.2386 (sec) ----------------
Step     =         102500 CPU      = 6.23862 Temp     =   5.3753729e-06 
Press    = -16495.7 PotEng   = -832.007 KinEng   = 1.32711e-07 
E_vdwl   = -832.007 E_coul   = 0 E_pair   = -832.007 
E_bond   = 0 E_angle  = 0 E_dihed  = 0 
Lx       = 10.8392 Ly       = 16.2725 Lz       = 22.1609 
Volume   = 3908.77 Pxx      = -10712 Pyy      = -11315.1 
Pzz      = -27460.1 Pxy      = -3.36714 Pxz      = -60.0833 
Pyz      = 184.623 v_eb     = 0 v_ev     = 0 
v_et     = 0 v_ew     = -832.007 v_ep     = 0 
---------------- Step   103000 ----- CPU =      6.3295 (sec) ----------------
Step     =         103000 CPU      = 6.32953 Temp     =   5.6714693e-06 
Press    = -16539 PotEng   = -832.002 KinEng   = 1.40021e-07 
E_vdwl   = -832.002 E_coul   = 0 E_pair   = -832.002 
E_bond   = 0 E_angle  = 0 E_dihed  = 0 
Lx       = 10.8389 Ly       = 16.2722 Lz       = 22.1629 
Volume   = 3908.94 Pxx      = -10720.7 Pyy      = -11332.5 
Pzz      = -27563.7 Pxy      = -2.22814 Pxz      = -60.7935 
Pyz      = 186.361 v_eb     = 0 v_ev     = 0 
v_et     = 0 v_ew     = -832.002 v_ep     = 0 
---------------- Step   103500 ----- CPU =      6.4211 (sec) ----------------
Step     =         103500 CPU      = 6.42115 Temp     =   4.5126254e-06 
Press    = -16582.2 PotEng   = -831.997 KinEng   = 1.11411e-07 
E_vdwl   = -831.997 E_coul   = 0 E_pair   = -831.997 
E_bond   = 0 E_angle  = 0 E_dihed  = 0 
Lx       = 10.8385 Ly       = 16.2719 Lz       = 22.165 
Volume   = 3909.11 Pxx      = -10729.5 Pyy      = -11349.9 
Pzz      = -27667.4 Pxy      = -5.06702 Pxz      = -61.8288 
Pyz      = 189.405 v_eb     = 0 v_ev     = 0 
v_et     = 0 v_ew     = -831.997 v_ep     = 0 
---------------- Step   104000 ----- CPU =      6.5121 (sec) ----------------
Step     =         104000 CPU      = 6.51211 Temp     =   4.8454135e-06 
Press    = -16625.5 PotEng   = -831.992 KinEng   = 1.19627e-07 
E_vdwl   = -831.992 E_coul   = 0 E_pair   = -831.992 
E_bond   = 0 E_angle  = 0 E_dihed  = 0 
Lx       = 10.8382 Ly       = 16.2716 Lz       = 22.167 
Volume   = 3909.28 Pxx      = -10738.2 Pyy      = -11367.3 
Pzz      = -27771 Pxy      = -1.39409 Pxz      = -62.6758 
Pyz      = 192.627 v_eb     = 0 v_ev     = 0 
v_et     = 0 v_ew     = -831.992 v_ep     = 0 
---------------- Step   104500 ----- CPU =      6.6034 (sec) ----------------
Step     =         104500 CPU      = 6.60337 Temp     =    5.106372e-06 
Press    = -16668.7 PotEng   = -831.987 KinEng   = 1.2607e-07 
E_vdwl   = -831.987 E_coul   = 0 E_pair   = -831.987 
E_bond   = 0 E_angle  = 0 E_dihed  = 0 
Lx       = 10.8379 Ly       = 16.2714 Lz       = 22.1691 
Volume   = 3909.45 Pxx      = -10746.9 Pyy      = -11384.6 
Pzz      = -27874.7 Pxy      = -5.21376 Pxz      = -63.431 
Pyz      = 194.355 v_eb     = 0 v_ev     = 0 
v_et     = 0 v_ew     = -831.987 v_ep     = 0 
---------------- Step   105000 ----- CPU =      6.6941 (sec) ----------------
Step     =         105000 CPU      = 6.69413 Temp     =   5.3360169e-06 
Press    = -16711.9 PotEng   = -831.982 KinEng   = 1.31739e-07 
E_vdwl   = -831.982 E_coul   = 0 E_pair   = -831.982 
E_bond   = 0 E_angle  = 0 E_dihed  = 0 
Lx       = 10.8376 Ly       = 16.2711 Lz       = 22.1711 
Volume   = 3909.62 Pxx      = -10755.6 Pyy      = -11401.9 
Pzz      = -27978.3 Pxy      = -2.29151 Pxz      = -64.4474 
Pyz      = 197.513 v_eb     = 0 v_ev     = 0 
v_et     = 0 v_ew     = -831.982 v_ep     = 0 
---------------- Step   105500 ----- CPU =      6.7912 (sec) ----------------
Step     =         105500 CPU      = 6.79125 Temp     =    4.650539e-06 
Press    = -16755.1 PotEng   = -831.977 KinEng   = 1.14816e-07 
E_vdwl   = -831.977 E_coul   = 0 E_pair   = -831.977 
E_bond   = 0 E_angle  = 0 E_dihed  = 0 
Lx       = 10.8372 Ly       = 16.2708 Lz       = 22.1732 
Volume   = 3909.8 Pxx      = -10764.3 Pyy      = -11419.3 
Pzz      = -28081.9 Pxy      = -3.85326 Pxz      = -65.2902 
Pyz      = 200.62 v_eb     = 0 v_ev     = 0 
v_et     = 0 v_ew     = -831.977 v_ep     = 0 
---------------- Step   106000 ----- CPU =      6.8819 (sec) ----------------
Step     =         106000 CPU      = 6.88186 Temp     =   6.1851427e-06 
Press    = -16798.3 PotEng   = -831.972 KinEng   = 1.52703e-07 
E_vdwl   = -831.972 E_coul   = 0 E_pair   = -831.972 
E_bond   = 0 E_angle  = 0 E_dihed  = 0 
Lx       = 10.8369 Ly       = 16.2705 Lz       = 22.1752 
Volume   = 3909.97 Pxx      = -10772.9 Pyy      = -11436.6 
Pzz      = -28185.6 Pxy      = -4.15091 Pxz      = -66.0478 
Pyz      = 202.341 v_eb     = 0 v_ev     = 0 
v_et     = 0 v_ew     = -831.972 v_ep     = 0 
---------------- Step   106500 ----- CPU =      6.9726 (sec) ----------------
Step     =         106500 CPU      = 6.97263 Temp     =   5.0781429e-06 
Press    = -16841.5 PotEng   = -831.967 KinEng   = 1.25373e-07 
E_vdwl   = -831.967 E_coul   = 0 E_pair   = -831.967 
E_bond   = 0 E_angle  = 0 E_dihed  = 0 
Lx       = 10.8366 Ly       = 16.2702 Lz       = 22.1773 
Volume   = 3910.14 Pxx      = -10781.6 Pyy      = -11453.8 
Pzz      = -28289.2 Pxy      = -2.25054 Pxz      = -67.0816 
Pyz      = 205.642 v_eb     = 0 v_ev     = 0 
v_et     = 0 v_ew     = -831.967 v_ep     = 0 
---------------- Step   107000 ----- CPU =      7.0635 (sec) ----------------
Step     =         107000 CPU      = 7.06347 Temp     =   4.8338497e-06 
Press    = -16884.7 PotEng   = -831.962 KinEng   = 1.19341e-07 
E_vdwl   = -831.962 E_coul   = 0 E_pair   = -831.962 
E_bond   = 0 E_angle  = 0 E_dihed  = 0 
Lx       = 10.8362 Ly       = 16.2699 Lz       = 22.1794 
Volume   = 3910.31 Pxx      = -10790.2 Pyy      = -11471.1 
Pzz      = -28392.8 Pxy      = -5.52653 Pxz      = -67.8947 
Pyz      = 208.586 v_eb     = 0 v_ev     = 0 
v_et     = 0 v_ew     = -831.962 v_ep     = 0 
---------------- Step   107500 ----- CPU =      7.1547 (sec) ----------------
Step     =         107500 CPU      = 7.15469 Temp     =    5.113396e-06 
Press    = -16927.9 PotEng   = -831.957 KinEng   = 1.26243e-07 
E_vdwl   = -831.957 E_coul   = 0 E_pair   = -831.957 
E_bond   = 0 E_angle  = 0 E_dihed  = 0 
Lx       = 10.8359 Ly       = 16.2696 Lz       = 22.1814 
Volume   = 3910.48 Pxx      = -10798.9 Pyy      = -11488.4 
Pzz      = -28496.4 Pxy      = -1.71269 Pxz      = -68.662 
Pyz      = 210.333 v_eb     = 0 v_ev     = 0 
v_et     = 0 v_ew     = -831.957 v_ep     = 0 
---------------- Step   108000 ----- CPU =      7.2456 (sec) ----------------
Step     =         108000 CPU      = 7.24564 Temp     =   4.7701222e-06 
Press    = -16971 PotEng   = -831.952 KinEng   = 1.17768e-07 
E_vdwl   = -831.952 E_coul   = 0 E_pair   = -831.952 
E_bond   = 0 E_angle  = 0 E_dihed  = 0 
Lx       = 10.8356 Ly       = 16.2693 Lz       = 22.1835 
Volume   = 3910.65 Pxx      = -10807.5 Pyy      = -11505.6 
Pzz      = -28600 Pxy      = -5.50324 Pxz      = -69.7329 
Pyz      = 213.789 v_eb     = 0 v_ev     = 0 
v_et     = 0 v_ew     = -831.952 v_ep     = 0 
---------------- Step   108500 ----- CPU =      7.3365 (sec) ----------------
Step     =         108500 CPU      = 7.33649 Temp     =   5.9207923e-06 
Press    = -17014.2 PotEng   = -831.947 KinEng   = 1.46177e-07 
E_vdwl   = -831.947 E_coul   = 0 E_pair   = -831.947 
E_bond   = 0 E_angle  = 0 E_dihed  = 0 
Lx       = 10.8352 Ly       = 16.269 Lz       = 22.1855 
Volume   = 3910.82 Pxx      = -10816.1 Pyy      = -11522.8 
Pzz      = -28703.6 Pxy      = -2.61913 Pxz      = -70.466 
Pyz      = 216.511 v_eb     = 0 v_ev     = 0 
v_et     = 0 v_ew     = -831.947 v_ep     = 0 
---------------- Step   109000 ----- CPU =      7.4281 (sec) ----------------
Step     =         109000 CPU      = 7.42809 Temp     =   5.1394435e-06 
Press    = -17057.3 PotEng   = -831.941 KinEng   = 1.26886e-07 
E_vdwl   = -831.941 E_coul   = 0 E_pair   = -831.941 
E_bond   = 0 E_angle  = 0 E_dihed  = 0 
Lx       = 10.8349 Ly       = 16.2687 Lz       = 22.1876 
Volume   = 3910.99 Pxx      = -10824.7 Pyy      = -11540 
Pzz      = -28807.2 Pxy      = -4.25991 Pxz      = -71.3157 
Pyz      = 218.357 v_eb     = 0 v_ev     = 0 
v_et     = 0 v_ew     = -831.941 v_ep     = 0 
---------------- Step   109500 ----- CPU =      7.5191 (sec) ----------------
Step     =         109500 CPU      = 7.51909 Temp     =   5.6333506e-06 
Press    = -17100.4 PotEng   = -831.936 KinEng   = 1.3908e-07 
E_vdwl   = -831.936 E_coul   = 0 E_pair   = -831.936 
E_bond   = 0 E_angle  = 0 E_dihed  = 0 
Lx       = 10.8346 Ly       = 16.2684 Lz       = 22.1896 
Volume   = 3911.17 Pxx      = -10833.3 Pyy      = -11557.2 
Pzz      = -28910.8 Pxy      = -4.31627 Pxz      = -72.3486 
Pyz      = 221.928 v_eb     = 0 v_ev     = 0 
v_et     = 0 v_ew     = -831.936 v_ep     = 0 
---------------- Step   110000 ----- CPU =      7.6109 (sec) ----------------
Step     =         110000 CPU      = 7.61088 Temp     =   5.8728165e-06 
Press    = -17143.6 PotEng   = -831.931 KinEng   = 1.44992e-07 
E_vdwl   = -831.931 E_coul   = 0 E_pair   = -831.931 
E_bond   = 0 E_angle  = 0 E_dihed  = 0 
Lx       = 10.8342 Ly       = 16.2681 Lz       = 22.1917 
Volume   = 3911.34 Pxx      = -10841.9 Pyy      = -11574.4 
Pzz      = -29014.4 Pxy      = -2.76621 Pxz      = -73.0556 
Pyz      = 224.41 v_eb     = 0 v_ev     = 0 
v_et     = 0 v_ew     = -831.931 v_ep     = 0 
---------------- Step   110500 ----- CPU =      7.7018 (sec) ----------------
Step     =         110500 CPU      = 7.70181 Temp     =   4.7146176e-06 
Press    = -17186.7 PotEng   = -831.926 KinEng   = 1.16398e-07 
E_vdwl   = -831.926 E_coul   = 0 E_pair   = -831.926 
E_bond   = 0 E_angle  = 0 E_dihed  = 0 
Lx       = 10.8339 Ly       = 16.2678 Lz       = 22.1937 
Volume   = 3911.51 Pxx      = -10850.4 Pyy      = -11591.6 
Pzz      = -29118 Pxy      = -5.71462 Pxz      = -73.9705 
Pyz      = 226.413 v_eb     = 0 v_ev     = 0 
v_et     = 0 v_ew     = -831.926 v_ep     = 0 
---------------- Step   111000 ----- CPU =      7.7926 (sec) ----------------
Step     =         111000 CPU      = 7.7926 Temp     =   5.2341675e-06 
Press    = -17229.7 PotEng   = -831.921 KinEng   = 1.29225e-07 
E_vdwl   = -831.921 E_coul   = 0 E_pair   = -831.921 
E_bond   = 0 E_angle  = 0 E_dihed  = 0 
Lx       = 10.8336 Ly       = 16.2675 Lz       = 22.1958 
Volume   = 3911.68 Pxx      = -10859 Pyy      = -11608.7 
Pzz      = -29221.6 Pxy      = -2.03515 Pxz      = -74.9463 
Pyz      = 230.053 v_eb     = 0 v_ev     = 0 
v_et     = 0 v_ew     = -831.921 v_ep     = 0 
---------------- Step   111500 ----- CPU =      7.8852 (sec) ----------------
Step     =         111500 CPU      = 7.88518 Temp     =   5.1953185e-06 
Press    = -17272.8 PotEng   = -831.915 KinEng   = 1.28266e-07 
E_vdwl   = -831.915 E_coul   = 0 E_pair   = -831.915 
E_bond   = 0 E_angle  = 0 E_dihed  = 0 
Lx       = 10.8333 Ly       = 16.2672 Lz       = 22.1978 
Volume   = 3911.85 Pxx      = -10867.5 Pyy      = -11625.8 
Pzz      = -29325.1 Pxy      = -6.04092 Pxz      = -75.6688 
Pyz      = 232.285 v_eb     = 0 v_ev     = 0 
v_et     = 0 v_ew     = -831.915 v_ep     = 0 
---------------- Step   112000 ----- CPU =      7.9764 (sec) ----------------
Step     =         112000 CPU      = 7.97643 Temp     =    5.508556e-06 
Press    = -17315.9 PotEng   = -831.91 KinEng   = 1.35999e-07 
E_vdwl   = -831.91 E_coul   = 0 E_pair   = -831.91 
E_bond   = 0 E_angle  = 0 E_dihed  = 0 
Lx       = 10.8329 Ly       = 16.2669 Lz       = 22.1999 
Volume   = 3912.02 Pxx      = -10876 Pyy      = -11643 
Pzz      = -29428.7 Pxy      = -2.49462 Pxz      = -76.6009 
Pyz      = 234.503 v_eb     = 0 v_ev     = 0 
v_et     = 0 v_ew     = -831.91 v_ep     = 0 
---------------- Step   112500 ----- CPU =      8.0674 (sec) ----------------
Step     =         112500 CPU      = 8.06741 Temp     =   5.0812181e-06 
Press    = -17359 PotEng   = -831.905 KinEng   = 1.25449e-07 
E_vdwl   = -831.905 E_coul   = 0 E_pair   = -831.905 
E_bond   = 0 E_angle  = 0 E_dihed  = 0 
Lx       = 10.8326 Ly       = 16.2666 Lz       = 22.2019 
Volume   = 3912.19 Pxx      = -10884.6 Pyy      = -11660.1 
Pzz      = -29532.3 Pxy      = -5.24852 Pxz      = -77.5671 
Pyz      = 238.161 v_eb     = 0 v_ev     = 0 
v_et     = 0 v_ew     = -831.905 v_ep     = 0 
---------------- Step   113000 ----- CPU =      8.1577 (sec) ----------------
Step     =         113000 CPU      = 8.15774 Temp     =   5.3182511e-06 
Press    = -17402 PotEng   = -831.899 KinEng   = 1.31301e-07 
E_vdwl   = -831.899 E_coul   = 0 E_pair   = -831.899 
E_bond   = 0 E_angle  = 0 E_dihed  = 0 
Lx       = 10.8323 Ly       = 16.2663 Lz       = 22.204 
Volume   = 3912.36 Pxx      = -10893.1 Pyy      = -11677.1 
Pzz      = -29635.8 Pxy      = -3.84144 Pxz      = -78.2536 
Pyz      = 240.128 v_eb     = 0 v_ev     = 0 
v_et     = 0 v_ew     = -831.899 v_ep     = 0 
---------------- Step   113500 ----- CPU =      8.2492 (sec) ----------------
Step     =         113500 CPU      = 8.24917 Temp     =   5.2591262e-06 
Press    = -17445 PotEng   = -831.894 KinEng   = 1.29841e-07 
E_vdwl   = -831.894 E_coul   = 0 E_pair   = -831.894 
E_bond   = 0 E_angle  = 0 E_dihed  = 0 
Lx       = 10.8319 Ly       = 16.266 Lz       = 22.206 
Volume   = 3912.53 Pxx      = -10901.6 Pyy      = -11694.2 
Pzz      = -29739.4 Pxy      = -3.90704 Pxz      = -79.265 
Pyz      = 242.655 v_eb     = 0 v_ev     = 0 
v_et     = 0 v_ew     = -831.894 v_ep     = 0 
---------------- Step   114000 ----- CPU =      8.3394 (sec) ----------------
Step     =         114000 CPU      = 8.33945 Temp     =   5.6073775e-06 
Press    = -17488.1 PotEng   = -831.888 KinEng   = 1.38439e-07 
E_vdwl   = -831.888 E_coul   = 0 E_pair   = -831.888 
E_bond   = 0 E_angle  = 0 E_dihed  = 0 
Lx       = 10.8316 Ly       = 16.2657 Lz       = 22.2081 
Volume   = 3912.71 Pxx      = -10910.1 Pyy      = -11711.3 
Pzz      = -29842.9 Pxy      = -5.35166 Pxz      = -80.1525 
Pyz      = 246.211 v_eb     = 0 v_ev     = 0 
v_et     = 0 v_ew     = -831.888 v_ep     = 0 
---------------- Step   114500 ----- CPU =      8.4300 (sec) ----------------
Step     =         114500 CPU      = 8.43002 Temp     =    5.964904e-06 
Press    = -17531.1 PotEng   = -831.883 KinEng   = 1.47266e-07 
E_vdwl   = -831.883 E_coul   = 0 E_pair   = -831.883 
E_bond   = 0 E_angle  = 0 E_dihed  = 0 
Lx       = 10.8313 Ly       = 16.2654 Lz       = 22.2101 
Volume   = 3912.88 Pxx      = -10918.5 Pyy      = -11728.3 
Pzz      = -29946.5 Pxy      = -2.77774 Pxz      = -80.8603 
Pyz      = 247.974 v_eb     = 0 v_ev     = 0 
v_et     = 0 v_ew     = -831.883 v_ep     = 0 
---------------- Step   115000 ----- CPU =      8.5204 (sec) ----------------
Step     =         115000 CPU      = 8.5204 Temp     =   4.8613847e-06 
Press    = -17574.1 PotEng   = -831.878 KinEng   = 1.20021e-07 
E_vdwl   = -831.878 E_coul   = 0 E_pair   = -831.878 
E_bond   = 0 E_angle  = 0 E_dihed  = 0 
Lx       = 10.8309 Ly       = 16.2651 Lz       = 22.2122 
Volume   = 3913.05 Pxx      = -10927 Pyy      = -11745.3 
Pzz      = -30050 Pxy      = -6.33039 Pxz      = -81.9319 
Pyz      = 250.86 v_eb     = 0 v_ev     = 0 
v_et     = 0 v_ew     = -831.878 v_ep     = 0 
---------------- Step   115500 ----- CPU =      8.6112 (sec) ----------------
Step     =         115500 CPU      = 8.6112 Temp     =   4.7425369e-06 
Press    = -17617.1 PotEng   = -831.872 KinEng   = 1.17087e-07 
E_vdwl   = -831.872 E_coul   = 0 E_pair   = -831.872 
E_bond   = 0 E_angle  = 0 E_dihed  = 0 
Lx       = 10.8306 Ly       = 16.2648 Lz       = 22.2142 
Volume   = 3913.22 Pxx      = -10935.4 Pyy      = -11762.3 
Pzz      = -30153.5 Pxy      = -2.40947 Pxz      = -82.7048 
Pyz      = 254.182 v_eb     = 0 v_ev     = 0 
v_et     = 0 v_ew     = -831.872 v_ep     = 0 
---------------- Step   116000 ----- CPU =      8.7026 (sec) ----------------
Step     =         116000 CPU      = 8.70264 Temp     =   4.9526054e-06 
Press    = -17660.1 PotEng   = -831.867 KinEng   = 1.22273e-07 
E_vdwl   = -831.867 E_coul   = 0 E_pair   = -831.867 
E_bond   = 0 E_angle  = 0 E_dihed  = 0 
Lx       = 10.8303 Ly       = 16.2645 Lz       = 22.2163 
Volume   = 3913.39 Pxx      = -10943.9 Pyy      = -11779.3 
Pzz      = -30257 Pxy      = -6.42613 Pxz      = -83.5181 
Pyz      = 255.86 v_eb     = 0 v_ev     = 0 
v_et     = 0 v_ew     = -831.867 v_ep     = 0 
---------------- Step   116500 ----- CPU =      8.7941 (sec) ----------------
Step     =         116500 CPU      = 8.79406 Temp     =   5.8038874e-06 
Press    = -17703.1 PotEng   = -831.861 KinEng   = 1.4329e-07 
E_vdwl   = -831.861 E_coul   = 0 E_pair   = -831.861 
E_bond   = 0 E_angle  = 0 E_dihed  = 0 
Lx       = 10.8299 Ly       = 16.2642 Lz       = 22.2184 
Volume   = 3913.56 Pxx      = -10952.3 Pyy      = -11796.3 
Pzz      = -30360.6 Pxy      = -2.93426 Pxz      = -84.5452 
Pyz      = 259.087 v_eb     = 0 v_ev     = 0 
v_et     = 0 v_ew     = -831.861 v_ep     = 0 
---------------- Step   117000 ----- CPU =      8.8845 (sec) ----------------
Step     =         117000 CPU      = 8.88452 Temp     =   6.4477837e-06 
Press    = -17746 PotEng   = -831.856 KinEng   = 1.59187e-07 
E_vdwl   = -831.856 E_coul   = 0 E_pair   = -831.856 
E_bond   = 0 E_angle  = 0 E_dihed  = 0 
Lx       = 10.8296 Ly       = 16.2639 Lz       = 22.2204 
Volume   = 3913.73 Pxx      = -10960.7 Pyy      = -11813.3 
Pzz      = -30464.1 Pxy      = -5.72004 Pxz      = -85.2957 
Pyz      = 262.082 v_eb     = 0 v_ev     = 0 
v_et     = 0 v_ew     = -831.856 v_ep     = 0 
---------------- Step   117500 ----- CPU =      8.9751 (sec) ----------------
Step     =         117500 CPU      = 8.97512 Temp     =   6.0833228e-06 
Press    = -17789 PotEng   = -831.85 KinEng   = 1.50189e-07 
E_vdwl   = -831.85 E_coul   = 0 E_pair   = -831.85 
E_bond   = 0 E_angle  = 0 E_dihed  = 0 
Lx       = 10.8293 Ly       = 16.2636 Lz       = 22.2225 
Volume   = 3913.9 Pxx      = -10969.1 Pyy      = -11830.2 
Pzz      = -30567.6 Pxy      = -4.08937 Pxz      = -86.1532 
Pyz      = 263.798 v_eb     = 0 v_ev     = 0 
v_et     = 0 v_ew     = -831.85 v_ep     = 0 
---------------- Step   118000 ----- CPU =      9.0656 (sec) ----------------
Step     =         118000 CPU      = 9.06561 Temp     =   5.7162798e-06 
Press    = -17831.9 PotEng   = -831.845 KinEng   = 1.41127e-07 
E_vdwl   = -831.845 E_coul   = 0 E_pair   = -831.845 
E_bond   = 0 E_angle  = 0 E_dihed  = 0 
Lx       = 10.829 Ly       = 16.2634 Lz       = 22.2245 
Volume   = 3914.07 Pxx      = -10977.5 Pyy      = -11847.1 
Pzz      = -30671.1 Pxy      = -4.60591 Pxz      = -87.1723 
Pyz      = 267.329 v_eb     = 0 v_ev     = 0 
v_et     = 0 v_ew     = -831.845 v_ep     = 0 
---------------- Step   118500 ----- CPU =      9.1560 (sec) ----------------
Step     =         118500 CPU      = 9.15603 Temp     =   5.0964469e-06 
Press    = -17874.9 PotEng   = -831.839 KinEng   = 1.25825e-07 
E_vdwl   = -831.839 E_coul   = 0 E_pair   = -831.839 
E_bond   = 0 E_angle  = 0 E_dihed  = 0 
Lx       = 10.8286 Ly       = 16.2631 Lz       = 22.2266 
Volume   = 3914.24 Pxx      = -10985.9 Pyy      = -11864 
Pzz      = -30774.6 Pxy      = -5.41025 Pxz      = -87.8673 
Pyz      = 269.892 v_eb     = 0 v_ev     = 0 
v_et     = 0 v_ew     = -831.839 v_ep     = 0 
---------------- Step   119000 ----- CPU =      9.2468 (sec) ----------------
Step     =         119000 CPU      = 9.2468 Temp     =   4.6925149e-06 
Press    = -17917.8 PotEng   = -831.833 KinEng   = 1.15852e-07 
E_vdwl   = -831.833 E_coul   = 0 E_pair   = -831.833 
E_bond   = 0 E_angle  = 0 E_dihed  = 0 
Lx       = 10.8283 Ly       = 16.2628 Lz       = 22.2286 
Volume   = 3914.41 Pxx      = -10994.3 Pyy      = -11880.9 
Pzz      = -30878.1 Pxy      = -3.55945 Pxz      = -88.8148 
Pyz      = 271.836 v_eb     = 0 v_ev     = 0 
v_et     = 0 v_ew     = -831.833 v_ep     = 0 
---------------- Step   119500 ----- CPU =      9.3373 (sec) ----------------
Step     =         119500 CPU      = 9.33731 Temp     =   5.4819654e-06 
Press    = -17960.7 PotEng   = -831.828 KinEng   = 1.35343e-07 
E_vdwl   = -831.828 E_coul   = 0 E_pair   = -831.828 
E_bond   = 0 E_angle  = 0 E_dihed  = 0 
Lx       = 10.828 Ly       = 16.2625 Lz       = 22.2307 
Volume   = 3914.58 Pxx      = -11002.6 Pyy      = -11897.8 
Pzz      = -30981.6 Pxy      = -6.46 Pxz      = -89.7737 
Pyz      = 275.528 v_eb     = 0 v_ev     = 0 
v_et     = 0 v_ew     = -831.828 v_ep     = 0 
---------------- Step   120000 ----- CPU =      9.4279 (sec) ----------------
Step     =         120000 CPU      = 9.42786 Temp     =   6.2446264e-06 
Press    = -18003.6 PotEng   = -831.822 KinEng   = 1.54172e-07 
E_vdwl   = -831.822 E_coul   = 0 E_pair   = -831.822 
E_bond   = 0 E_angle  = 0 E_dihed  = 0 
Lx       = 10.8276 Ly       = 16.2622 Lz       = 22.2327 
Volume   = 3914.75 Pxx      = -11011 Pyy      = -11914.7 
Pzz      = -31085.1 Pxy      = -2.94319 Pxz      = -90.443 
Pyz      = 277.64 v_eb     = 0 v_ev     = 0 
v_et     = 0 v_ew     = -831.822 v_ep     = 0 
---------------- Step   120500 ----- CPU =      9.5187 (sec) ----------------
Step     =         120500 CPU      = 9.5187 Temp     =   6.1910584e-06 
Press    = -18046.5 PotEng   = -831.816 KinEng   = 1.52849e-07 
E_vdwl   = -831.816 E_coul   = 0 E_pair   = -831.816 
E_bond   = 0 E_angle  = 0 E_dihed  = 0 
Lx       = 10.8273 Ly       = 16.2619 Lz       = 22.2348 
Volume   = 3914.92 Pxx      = -11019.3 Pyy      = -11931.6 
Pzz      = -31188.5 Pxy      = -6.97136 Pxz      = -91.5058 
Pyz      = 279.999 v_eb     = 0 v_ev     = 0 
v_et     = 0 v_ew     = -831.816 v_ep     = 0 
---------------- Step   121000 ----- CPU =      9.6098 (sec) ----------------
Step     =         121000 CPU      = 9.60981 Temp     =   5.6013488e-06 
Press    = -18089.4 PotEng   = -831.811 KinEng   = 1.3829e-07 
E_vdwl   = -831.811 E_coul   = 0 E_pair   = -831.811 
E_bond   = 0 E_angle  = 0 E_dihed  = 0 
Lx       = 10.827 Ly       = 16.2616 Lz       = 22.2368 
Volume   = 3915.09 Pxx      = -11027.7 Pyy      = -11948.4 
Pzz      = -31292 Pxy      = -2.9202 Pxz      = -92.3115 
Pyz      = 283.618 v_eb     = 0 v_ev     = 0 
v_et     = 0 v_ew     = -831.811 v_ep     = 0 
---------------- Step   121500 ----- CPU =      9.7007 (sec) ----------------
Step     =         121500 CPU      = 9.70069 Temp     =   5.7048027e-06 
Press    = -18132.2 PotEng   = -831.805 KinEng   = 1.40844e-07 
E_vdwl   = -831.805 E_coul   = 0 E_pair   = -831.805 
E_bond   = 0 E_angle  = 0 E_dihed  = 0 
Lx       = 10.8266 Ly       = 16.2613 Lz       = 22.2389 
Volume   = 3915.26 Pxx      = -11036 Pyy      = -11965.2 
Pzz      = -31395.5 Pxy      = -6.88538 Pxz      = -93.0955 
Pyz      = 285.399 v_eb     = 0 v_ev     = 0 
v_et     = 0 v_ew     = -831.805 v_ep     = 0 
---------------- Step   122000 ----- CPU =      9.7925 (sec) ----------------
Step     =         122000 CPU      = 9.79253 Temp     =   6.3112232e-06 
Press    = -18175.1 PotEng   = -831.799 KinEng   = 1.55816e-07 
E_vdwl   = -831.799 E_coul   = 0 E_pair   = -831.799 
E_bond   = 0 E_angle  = 0 E_dihed  = 0 
Lx       = 10.8263 Ly       = 16.261 Lz       = 22.2409 
Volume   = 3915.44 Pxx      = -11044.3 Pyy      = -11982 
Pzz      = -31498.9 Pxy      = -3.4526 Pxz      = -94.1299 
Pyz      = 288.25 v_eb     = 0 v_ev     = 0 
v_et     = 0 v_ew     = -831.799 v_ep     = 0 
---------------- Step   122500 ----- CPU =      9.8837 (sec) ----------------
Step     =         122500 CPU      = 9.88373 Temp     =   6.4563827e-06 
Press    = -18217.9 PotEng   = -831.793 KinEng   = 1.594e-07 
E_vdwl   = -831.793 E_coul   = 0 E_pair   = -831.793 
E_bond   = 0 E_angle  = 0 E_dihed  = 0 
Lx       = 10.826 Ly       = 16.2607 Lz       = 22.243 
Volume   = 3915.61 Pxx      = -11052.6 Pyy      = -11998.8 
Pzz      = -31602.4 Pxy      = -6.32292 Pxz      = -94.888 
Pyz      = 291.583 v_eb     = 0 v_ev     = 0 
v_et     = 0 v_ew     = -831.793 v_ep     = 0 
---------------- Step   123000 ----- CPU =      9.9748 (sec) ----------------
Step     =         123000 CPU      = 9.97475 Temp     =   5.8929217e-06 
Press    = -18260.8 PotEng   = -831.788 KinEng   = 1.45489e-07 
E_vdwl   = -831.788 E_coul   = 0 E_pair   = -831.788 
E_bond   = 0 E_angle  = 0 E_dihed  = 0 
Lx       = 10.8256 Ly       = 16.2604 Lz       = 22.245 
Volume   = 3915.78 Pxx      = -11060.9 Pyy      = -12015.6 
Pzz      = -31705.8 Pxy      = -4.35643 Pxz      = -95.7329 
Pyz      = 293.212 v_eb     = 0 v_ev     = 0 
v_et     = 0 v_ew     = -831.788 v_ep     = 0 
---------------- Step   123500 ----- CPU =     10.0665 (sec) ----------------
Step     =         123500 CPU      = 10.0665 Temp     =   5.7653615e-06 
Press    = -18303.6 PotEng   = -831.782 KinEng   = 1.42339e-07 
E_vdwl   = -831.782 E_coul   = 0 E_pair   = -831.782 
E_bond   = 0 E_angle  = 0 E_dihed  = 0 
Lx       = 10.8253 Ly       = 16.2601 Lz       = 22.2471 
Volume   = 3915.95 Pxx      = -11069.1 Pyy      = -12032.4 
Pzz      = -31809.3 Pxy      = -5.50702 Pxz      = -96.7613 
Pyz      = 296.567 v_eb     = 0 v_ev     = 0 
v_et     = 0 v_ew     = -831.782 v_ep     = 0 
---------------- Step   124000 ----- CPU =     10.1574 (sec) ----------------
Step     =         124000 CPU      = 10.1574 Temp     =   5.2807085e-06 
Press    = -18346.4 PotEng   = -831.776 KinEng   = 1.30374e-07 
E_vdwl   = -831.776 E_coul   = 0 E_pair   = -831.776 
E_bond   = 0 E_angle  = 0 E_dihed  = 0 
Lx       = 10.825 Ly       = 16.2598 Lz       = 22.2491 
Volume   = 3916.12 Pxx      = -11077.4 Pyy      = -12049.1 
Pzz      = -31912.7 Pxy      = -5.39405 Pxz      = -97.4421 
Pyz      = 299.384 v_eb     = 0 v_ev     = 0 
v_et     = 0 v_ew     = -831.776 v_ep     = 0 
---------------- Step   124500 ----- CPU =     10.2492 (sec) ----------------
Step     =         124500 CPU      = 10.2492 Temp     =   5.8877052e-06 
Press    = -18389.2 PotEng   = -831.77 KinEng   = 1.4536e-07 
E_vdwl   = -831.77 E_coul   = 0 E_pair   = -831.77 
E_bond   = 0 E_angle  = 0 E_dihed  = 0 
Lx       = 10.8247 Ly       = 16.2595 Lz       = 22.2512 
Volume   = 3916.29 Pxx      = -11085.6 Pyy      = -12065.8 
Pzz      = -32016.2 Pxy      = -4.66889 Pxz      = -98.4123 
Pyz      = 301.173 v_eb     = 0 v_ev     = 0 
v_et     = 0 v_ew     = -831.77 v_ep     = 0 
---------------- Step   125000 ----- CPU =     10.3410 (sec) ----------------
Step     =         125000 CPU      = 10.341 Temp     =   7.3504277e-06 
Press    = -18432 PotEng   = -831.764 KinEng   = 1.81472e-07 
E_vdwl   = -831.764 E_coul   = 0 E_pair   = -831.764 
E_bond   = 0 E_angle  = 0 E_dihed  = 0 
Lx       = 10.8243 Ly       = 16.2592 Lz       = 22.2532 
Volume   = 3916.46 Pxx      = -11093.9 Pyy      = -12082.6 
Pzz      = -32119.6 Pxy      = -6.35582 Pxz      = -99.3426 
Pyz      = 304.848 v_eb     = 0 v_ev     = 0 
v_et     = 0 v_ew     = -831.764 v_ep     = 0 
---------------- Step   125500 ----- CPU =     10.4321 (sec) ----------------
Step     =         125500 CPU      = 10.4321 Temp     =   5.7688396e-06 
Press    = -18474.8 PotEng   = -831.758 KinEng   = 1.42425e-07 
E_vdwl   = -831.758 E_coul   = 0 E_pair   = -831.758 
E_bond   = 0 E_angle  = 0 E_dihed  = 0 
Lx       = 10.824 Ly       = 16.2589 Lz       = 22.2553 
Volume   = 3916.63 Pxx      = -11102.1 Pyy      = -12099.3 
Pzz      = -32223 Pxy      = -3.98772 Pxz      = -100.026 
Pyz      = 307.071 v_eb     = 0 v_ev     = 0 
v_et     = 0 v_ew     = -831.758 v_ep     = 0 
---------------- Step   126000 ----- CPU =     10.5231 (sec) ----------------
Step     =         126000 CPU      = 10.5231 Temp     =   5.7913601e-06 
Press    = -18517.6 PotEng   = -831.753 KinEng   = 1.42981e-07 
E_vdwl   = -831.753 E_coul   = 0 E_pair   = -831.753 
E_bond   = 0 E_angle  = 0 E_dihed  = 0 
Lx       = 10.8237 Ly       = 16.2586 Lz       = 22.2574 
Volume   = 3916.8 Pxx      = -11110.3 Pyy      = -12116 
Pzz      = -32326.4 Pxy      = -7.09702 Pxz      = -101.103 
Pyz      = 309.324 v_eb     = 0 v_ev     = 0 
v_et     = 0 v_ew     = -831.753 v_ep     = 0 
---------------- Step   126500 ----- CPU =     10.6146 (sec) ----------------
Step     =         126500 CPU      = 10.6146 Temp     =   5.5429039e-06 
Press    = -18560.3 PotEng   = -831.747 KinEng   = 1.36847e-07 
E_vdwl   = -831.747 E_coul   = 0 E_pair   = -831.747 
E_bond   = 0 E_angle  = 0 E_dihed  = 0 
Lx       = 10.8233 Ly       = 16.2583 Lz       = 22.2594 
Volume   = 3916.97 Pxx      = -11118.5 Pyy      = -12132.6 
Pzz      = -32429.8 Pxy      = -3.5723 Pxz      = -101.865 
Pyz      = 312.983 v_eb     = 0 v_ev     = 0 
v_et     = 0 v_ew     = -831.747 v_ep     = 0 
---------------- Step   127000 ----- CPU =     10.7098 (sec) ----------------
Step     =         127000 CPU      = 10.7098 Temp     =   5.4557881e-06 
Press    = -18603.1 PotEng   = -831.741 KinEng   = 1.34696e-07 
E_vdwl   = -831.741 E_coul   = 0 E_pair   = -831.741 
E_bond   = 0 E_angle  = 0 E_dihed  = 0 
Lx       = 10.823 Ly       = 16.258 Lz       = 22.2615 
Volume   = 3917.14 Pxx      = -11126.7 Pyy      = -12149.3 
Pzz      = -32533.2 Pxy      = -7.5454 Pxz      = -102.694 
Pyz      = 314.752 v_eb     = 0 v_ev     = 0 
v_et     = 0 v_ew     = -831.741 v_ep     = 0 
---------------- Step   127500 ----- CPU =     10.8011 (sec) ----------------
Step     =         127500 CPU      = 10.8011 Temp     =   5.9825004e-06 
Press    = -18645.8 PotEng   = -831.735 KinEng   = 1.477e-07 
E_vdwl   = -831.735 E_coul   = 0 E_pair   = -831.735 
E_bond   = 0 E_angle  = 0 E_dihed  = 0 
Lx       = 10.8227 Ly       = 16.2577 Lz       = 22.2635 
Volume   = 3917.31 Pxx      = -11134.9 Pyy      = -12165.9 
Pzz      = -32636.6 Pxy      = -3.45854 Pxz      = -103.714 
Pyz      = 317.623 v_eb     = 0 v_ev     = 0 
v_et     = 0 v_ew     = -831.735 v_ep     = 0 
---------------- Step   128000 ----- CPU =     10.8920 (sec) ----------------
Step     =         128000 CPU      = 10.892 Temp     =   5.5714984e-06 
Press    = -18688.6 PotEng   = -831.729 KinEng   = 1.37553e-07 
E_vdwl   = -831.729 E_coul   = 0 E_pair   = -831.729 
E_bond   = 0 E_angle  = 0 E_dihed  = 0 
Lx       = 10.8223 Ly       = 16.2574 Lz       = 22.2656 
Volume   = 3917.48 Pxx      = -11143.1 Pyy      = -12182.6 
Pzz      = -32740 Pxy      = -7.69938 Pxz      = -104.437 
Pyz      = 320.923 v_eb     = 0 v_ev     = 0 
v_et     = 0 v_ew     = -831.729 v_ep     = 0 
---------------- Step   128500 ----- CPU =     10.9831 (sec) ----------------
Step     =         128500 CPU      = 10.9831 Temp     =   5.1582924e-06 
Press    = -18731.3 PotEng   = -831.723 KinEng   = 1.27351e-07 
E_vdwl   = -831.723 E_coul   = 0 E_pair   = -831.723 
E_bond   = 0 E_angle  = 0 E_dihed  = 0 
Lx       = 10.822 Ly       = 16.2571 Lz       = 22.2676 
Volume   = 3917.65 Pxx      = -11151.2 Pyy      = -12199.2 
Pzz      = -32843.4 Pxy      = -3.61836 Pxz      = -105.344 
Pyz      = 322.527 v_eb     = 0 v_ev     = 0 
v_et     = 0 v_ew     = -831.723 v_ep     = 0 
---------------- Step   129000 ----- CPU =     11.0743 (sec) ----------------
Step     =         129000 CPU      = 11.0743 Temp     =   4.8565696e-06 
Press    = -18774 PotEng   = -831.717 KinEng   = 1.19902e-07 
E_vdwl   = -831.717 E_coul   = 0 E_pair   = -831.717 
E_bond   = 0 E_angle  = 0 E_dihed  = 0 
Lx       = 10.8217 Ly       = 16.2568 Lz       = 22.2697 
Volume   = 3917.82 Pxx      = -11159.4 Pyy      = -12215.8 
Pzz      = -32946.8 Pxy      = -7.60947 Pxz      = -106.329 
Pyz      = 326.005 v_eb     = 0 v_ev     = 0 
v_et     = 0 v_ew     = -831.717 v_ep     = 0 
---------------- Step   129500 ----- CPU =     11.1652 (sec) ----------------
Step     =         129500 CPU      = 11.1652 Temp     =   5.4221017e-06 
Press    = -18816.7 PotEng   = -831.711 KinEng   = 1.33865e-07 
E_vdwl   = -831.711 E_coul   = 0 E_pair   = -831.711 
E_bond   = 0 E_angle  = 0 E_dihed  = 0 
Lx       = 10.8213 Ly       = 16.2565 Lz       = 22.2717 
Volume   = 3917.99 Pxx      = -11167.5 Pyy      = -12232.3 
Pzz      = -33050.2 Pxy      = -3.98717 Pxz      = -106.984 
Pyz      = 328.628 v_eb     = 0 v_ev     = 0 
v_et     = 0 v_ew     = -831.711 v_ep     = 0 
---------------- Step   130000 ----- CPU =     11.2562 (sec) ----------------
Step     =         130000 CPU      = 11.2562 Temp     =   5.5284442e-06 
Press    = -18859.4 PotEng   = -831.704 KinEng   = 1.3649e-07 
E_vdwl   = -831.704 E_coul   = 0 E_pair   = -831.704 
E_bond   = 0 E_angle  = 0 E_dihed  = 0 
Lx       = 10.821 Ly       = 16.2562 Lz       = 22.2738 
Volume   = 3918.16 Pxx      = -11175.6 Pyy      = -12248.9 
Pzz      = -33153.6 Pxy      = -7.34687 Pxz      = -108.058 
Pyz      = 330.547 v_eb     = 0 v_ev     = 0 
v_et     = 0 v_ew     = -831.704 v_ep     = 0 
---------------- Step   130500 ----- CPU =     11.3476 (sec) ----------------
Step     =         130500 CPU      = 11.3476 Temp     =   7.1500757e-06 
Press    = -18902.1 PotEng   = -831.698 KinEng   = 1.76526e-07 
E_vdwl   = -831.698 E_coul   = 0 E_pair   = -831.698 
E_bond   = 0 E_angle  = 0 E_dihed  = 0 
Lx       = 10.8207 Ly       = 16.2559 Lz       = 22.2758 
Volume   = 3918.33 Pxx      = -11183.8 Pyy      = -12265.5 
Pzz      = -33256.9 Pxy      = -4.49249 Pxz      = -108.842 
Pyz      = 334.274 v_eb     = 0 v_ev     = 0 
v_et     = 0 v_ew     = -831.698 v_ep     = 0 
---------------- Step   131000 ----- CPU =     11.4383 (sec) ----------------
Step     =         131000 CPU      = 11.4383 Temp     =   6.1005867e-06 
Press    = -18944.7 PotEng   = -831.692 KinEng   = 1.50615e-07 
E_vdwl   = -831.692 E_coul   = 0 E_pair   = -831.692 
E_bond   = 0 E_angle  = 0 E_dihed  = 0 
Lx       = 10.8203 Ly       = 16.2557 Lz       = 22.2779 
Volume   = 3918.5 Pxx      = -11191.9 Pyy      = -12282 
Pzz      = -33360.3 Pxy      = -6.98246 Pxz      = -109.643 
Pyz      = 336.235 v_eb     = 0 v_ev     = 0 
v_et     = 0 v_ew     = -831.692 v_ep     = 0 
---------------- Step   131500 ----- CPU =     11.5292 (sec) ----------------
Step     =         131500 CPU      = 11.5292 Temp     =   6.3647243e-06 
Press    = -18987.4 PotEng   = -831.686 KinEng   = 1.57137e-07 
E_vdwl   = -831.686 E_coul   = 0 E_pair   = -831.686 
E_bond   = 0 E_angle  = 0 E_dihed  = 0 
Lx       = 10.82 Ly       = 16.2554 Lz       = 22.2799 
Volume   = 3918.67 Pxx      = -11200 Pyy      = -12298.5 
Pzz      = -33463.7 Pxy      = -5.06614 Pxz      = -110.686 
Pyz      = 338.807 v_eb     = 0 v_ev     = 0 
v_et     = 0 v_ew     = -831.686 v_ep     = 0 
---------------- Step   132000 ----- CPU =     11.6203 (sec) ----------------
Step     =         132000 CPU      = 11.6203 Temp     =   6.4498319e-06 
Press    = -19030 PotEng   = -831.68 KinEng   = 1.59238e-07 
E_vdwl   = -831.68 E_coul   = 0 E_pair   = -831.68 
E_bond   = 0 E_angle  = 0 E_dihed  = 0 
Lx       = 10.8197 Ly       = 16.2551 Lz       = 22.282 
Volume   = 3918.84 Pxx      = -11208 Pyy      = -12315 
Pzz      = -33567 Pxy      = -6.58096 Pxz      = -111.386 
Pyz      = 342.311 v_eb     = 0 v_ev     = 0 
v_et     = 0 v_ew     = -831.68 v_ep     = 0 
---------------- Step   132500 ----- CPU =     11.7111 (sec) ----------------
Step     =         132500 CPU      = 11.7111 Temp     =   6.6469969e-06 
Press    = -19072.7 PotEng   = -831.674 KinEng   = 1.64106e-07 
E_vdwl   = -831.674 E_coul   = 0 E_pair   = -831.674 
E_bond   = 0 E_angle  = 0 E_dihed  = 0 
Lx       = 10.8194 Ly       = 16.2548 Lz       = 22.284 
Volume   = 3919.01 Pxx      = -11216.1 Pyy      = -12331.5 
Pzz      = -33670.4 Pxy      = -5.64839 Pxz      = -112.32 
Pyz      = 343.903 v_eb     = 0 v_ev     = 0 
v_et     = 0 v_ew     = -831.674 v_ep     = 0 
---------------- Step   133000 ----- CPU =     11.8025 (sec) ----------------
Step     =         133000 CPU      = 11.8025 Temp     =   5.8688557e-06 
Press    = -19115.3 PotEng   = -831.668 KinEng   = 1.44894e-07 
E_vdwl   = -831.668 E_coul   = 0 E_pair   = -831.668 
E_bond   = 0 E_angle  = 0 E_dihed  = 0 
Lx       = 10.819 Ly       = 16.2545 Lz       = 22.2861 
Volume   = 3919.18 Pxx      = -11224.2 Pyy      = -12348 
Pzz      = -33773.7 Pxy      = -6.19478 Pxz      = -113.273 
Pyz      = 347.227 v_eb     = 0 v_ev     = 0 
v_et     = 0 v_ew     = -831.668 v_ep     = 0 
---------------- Step   133500 ----- CPU =     11.8932 (sec) ----------------
Step     =         133500 CPU      = 11.8932 Temp     =   6.2718339e-06 
Press    = -19157.9 PotEng   = -831.661 KinEng   = 1.54843e-07 
E_vdwl   = -831.661 E_coul   = 0 E_pair   = -831.661 
E_bond   = 0 E_angle  = 0 E_dihed  = 0 
Lx       = 10.8187 Ly       = 16.2542 Lz       = 22.2881 
Volume   = 3919.35 Pxx      = -11232.2 Pyy      = -12364.5 
Pzz      = -33877 Pxy      = -6.19634 Pxz      = -113.956 
Pyz      = 350.042 v_eb     = 0 v_ev     = 0 
v_et     = 0 v_ew     = -831.661 v_ep     = 0 
---------------- Step   133624 ----- CPU =     11.9158 (sec) ----------------
Step     =         133624 CPU      = 11.9158 Temp     =   5.4591719e-06 
Press    = -19168.5 PotEng   = -831.66 KinEng   = 1.3478e-07 
E_vdwl   = -831.66 E_coul   = 0 E_pair   = -831.66 
E_bond   = 0 E_angle  = 0 E_dihed  = 0 
Lx       = 10.8186 Ly       = 16.2541 Lz       = 22.2887 
Volume   = 3919.39 Pxx      = -11234.2 Pyy      = -12368.5 
Pzz      = -33902.7 Pxy      = -7.8442 Pxz      = -114.366 
Pyz      = 350.566 v_eb     = 0 v_ev     = 0 
v_et     = 0 v_ew     = -831.66 v_ep     = 0 
Loop time of 11.9158 on 1 procs for 65410 steps with 192 atoms

Performance: 948.557 ns/day, 0.025 hours/ns, 5489.337 timesteps/s
100.0% CPU use with 1 MPI tasks x no OpenMP threads

MPI task timing breakdown:
Section |  min time  |  avg time  |  max time  |%varavg| %total
---------------------------------------------------------------
Pair    | 11.158     | 11.158     | 11.158     |   0.0 | 93.64
Neigh   | 0          | 0          | 0          |   0.0 |  0.00
Comm    | 0.2658     | 0.2658     | 0.2658     |   0.0 |  2.23
Output  | 0.0058765  | 0.0058765  | 0.0058765  |   0.0 |  0.05
Modify  | 0.37987    | 0.37987    | 0.37987    |   0.0 |  3.19
Other   |            | 0.1061     |            |       |  0.89

Nlocal:    192 ave 192 max 192 min
Histogram: 1 0 0 0 0 0 0 0 0 0
Nghost:    932 ave 932 max 932 min
Histogram: 1 0 0 0 0 0 0 0 0 0
Neighs:    0 ave 0 max 0 min
Histogram: 1 0 0 0 0 0 0 0 0 0
FullNghs:  6528 ave 6528 max 6528 min
Histogram: 1 0 0 0 0 0 0 0 0 0

Total # of neighbors = 6528
Ave neighs/atom = 34
Neighbor list builds = 0
Dangerous builds = 0

#  Releasing fix deform constraint
unfix 1

##  Setting 2fs timesteps
##timestep        dts #2.0  #(in wrapper)
#timestep        ${dts} #2.0
#
##  Running a molecular dynamics simulation for relaxation of applied strain
##  during the same amount of time
##run             nts #2000000  #(in wrapper)
#run             ${nts} #2000000

#  Releasing fix constraints
unfix 3
#unfix 4

#  Stopping dump
#undump            atom_dump

# Sample initial state
#variable nss equal ${nssample0}
#fix   shak all shake 0.001 20 1000 m 1.0
#fix   wholevol all nvt temp ${tempt} ${tempt} 100.0
#include ${locbe}/sample.mod.lammps
#unfix wholevol
#unfix shak

#variable tmp equal f_stress[1]
#variable pp11 equal ${tmp}
#variable tmp equal f_stress[2]
#variable pp22 equal ${tmp}
#variable tmp equal f_stress[3]
#variable pp33 equal ${tmp}
#variable tmp equal f_stress[4]
#variable pp12 equal ${tmp}
#variable tmp equal f_stress[5]
#variable pp13 equal ${tmp}
#variable tmp equal f_stress[6]
#variable pp23 equal ${tmp}
write_restart /home/jinzhen/projects/SCEMa/examples/test1/nanoscale_output/last.9.g0_1.dump
write_restart /home/jinzhen/projects/SCEMa/examples/test1/nanoscale_restart/lcts.9.g0_1.dump
Total wall time: 0:00:11
