LAMMPS (17 Nov 2016)
variable mdt string 0
variable loco string /home/jinzhen/projects/SCEMa/examples/test1/nanoscale_log/tmp/2-1.6.0_1
variable locs string ./lammps_scripts_sisw
variable tempt equal 0.010000
# This file is for a LAMMPS simulation created by James Suter
# The system is polyethane, using the CVFF forcefield
# the simulation will heat up to 500K, cooldown to 200K and then perform unixial stretching in the x direction

##  This script should be just run once at the beginning to provide the initial
##  reference testing box, which will the be evolved using the in.lammps.strain
##  input file.

## Should we optimize the lammps call depending on the computer setup?
## suffix OMP

#  Setting units convention for the rest of the file
units           real            # default

#  Setting variables/attributes associated with each atom: charge, bonds, angles,
#  dihedrals, impropers (full)
atom_style      full

#  Setting the dimension of the simulation
dimension       3               # default

#  Setting boundary types in each dimension (periodic)
boundary        p p p

# Choose potential
pair_style	sw

# Setup neighbor style
neighbor 1.0 nsq
neigh_modify once no every 1 delay 0 check yes
read_restart /home/jinzhen/projects/SCEMa/examples/test1/nanoscale_output/init.g0_1.bin
  triclinic box = (-0.000949778 -0.00142467 -0.00189956) to (10.8609 16.2914 21.7219) with tilt (0 0 0)
  1 by 1 by 1 MPI processor grid
  192 atoms
print 'initially computed'
initially computed
variable ll1 equal lx
variable ll2 equal ly
variable ll3 equal lz
variable dts equal 0.002000
variable nts equal 23910
variable ceeps_00 equal -7.505611e-05
variable ceeps_01 equal 2.367888e-07
variable ceeps_02 equal 5.199581e-06
variable ceeps_11 equal -5.526171e-05
variable ceeps_12 equal -1.633559e-05
variable ceeps_22 equal 2.677758e-05
# This file is for a LAMMPS simulation created by James Suter
# The system is polyethane, using the CVFF forcefield
# the simulation will heat up to 500K, cooldown to 200K and then perform unixial stretching in the x direction

## Should we optimize the lammps call depending on the computer setup?
## suffix OMP

pair_coeff * * ${locs}/Si.sw Si
pair_coeff * * ./lammps_scripts_sisw/Si.sw Si
Reading potential file ./lammps_scripts_sisw/Si.sw with DATE: 2007-06-11

variable eb      equal "ebond"
variable ea      equal "epair"
variable ev      equal "eangle"
variable et      equal "edihed"
variable ew      equal "evdwl"
variable ep      equal "ecoul"


##  -------------------------------------------
#   Calculate the stress-strain curve for uniaxial extension in the x direction

#  Setting to display thermodynamical information on the system every 500 steps
thermo          500

#  Setting the type of thermodynamical information to be printed: T, P, energies, dimesions, V, stress tensor
thermo_style    custom step cpu temp press pe ke evdwl ecoul epair ebond eangle edihed lx ly lz vol pxx pyy pzz pxy pxz pyz v_eb v_ev v_et v_ew v_ep

#  Setting the syntax of the printed thermodynamical information
thermo_modify   flush yes line multi format float %g format 3 %15.8g

#  Setting printing position information on all atoms every 5000 steps PE_stress_strain_x.xyz
#  file specifying atom type 1, 2 and 3 with names respectively C, C and H  (identical as
#  previous with different file name)
#dump            atom_dump all atom ${ndump} ${loco}/${mdt}_straining.atom
#dump            xyz_dump all xyz 5000    ${loco}/${mdt}_stress_strain_x.xyz
#dump_modify     xyz_dump element  C C H

#  Printing evolution of stress for comparison
variable pt equal "step"
variable pp equal "press"
variable p0 equal "pxx"
variable p1 equal "pyy"
variable p2 equal "pzz"
variable p10 equal "pxy"
variable p11 equal "pxz"
variable p12 equal "pyz"
variable p3 equal "pe"
variable p4 equal "ke"
variable p5 equal "temp"
variable p6 equal "lx"
variable p7 equal "ly"
variable p8 equal "lz"
variable p9 equal "vol"
variable evdwl equal "evdwl"
variable ecoul equal "ecoul"
variable eatom equal "epair"
variable ebond equal "ebond"
variable eangle equal "eangle"
variable edihed equal "edihed"

#  Storing initial dimensions of the box
variable lx1 equal ${p6}
variable lx1 equal 10.8618995568104
variable ly1 equal ${p7}
variable ly1 equal 16.2928493352156
variable lz1 equal ${p8}
variable lz1 equal 21.7237991136209

#  Compute current stress using sampling over time and fixed NVT conditions
#fix 1e all print 1 "${pt} ${pp} ${p0} ${p1} ${p2} ${p10} ${p11} ${p12} ${p3} ${p4} ${p5} ${p6} ${p7} ${p8} ${p9} ${evdwl} ${ecoul} ${eatom} ${ebond} ${eangle} ${edihed}" file ${loco}/${mdt}_strain_press_evol.dat screen no

#  Setting a Verlet time solution algorithm/integrator
run_style       verlet

#  Loading the same fix 4 as in the init.lammps set of commands.
#fix             4  all shake 0.001 20 1000 m 1.0  # SHAKE to keep bond distances / angles involving H-atoms fixe

#  Setting a global constraint of canonical ensemble on all atoms, the temperature is set constant at 200k
#  with a relaxation time of 100fs
#  > Is this done right, namely sufficiently constrained? Volume is later controlled by the fix deform
#  on all the components of the strain tensor...
#fix             3 all nvt temp 200.0 200.0 100
#fix             3 all langevin 200.0 200.0 100.0 699483
#fix             3 all nvt/sllod temp ${tempt} ${tempt} 100.0
fix             3 all nvt temp ${tempt} ${tempt} 100.0
fix             3 all nvt temp 0.01 ${tempt} 100.0
fix             3 all nvt temp 0.01 0.01 100.0

# Note: these computes are present by default in any input script when using thermo command
#compute thermo_press all temp
#compute thermo_press all pressure thermo_temp

#  Setting a strain constraint every 1 steps in the x-direction on the box at a strain rate of 1e-7 fs-1, position of
#  all atoms positions are remapped following an affine transformation, namely proportional to the box deformation.
##  Is it pertinent to remap the coordinates proportionaly to the applied
##  strains? Should we remap velocities? Or none?
##  This command might be moved to the C++ wrapper file (as well as all the
##  commands that can not be set before, probably just the run command, and
##  maybe timestep for practicality).
#print "${eeps_00} ${eeps_11} ${eeps_22} ${eeps_01} ${eeps_02} ${eeps_12}"
fix             1 all deform 1  x erate ${ceeps_00}                                 y erate ${ceeps_11}                                 z erate ${ceeps_22}                                xy erate ${ceeps_01}                                xz erate ${ceeps_02}                                yz erate ${ceeps_12}                                remap x
fix             1 all deform 1  x erate -7.505611e-05                                 y erate ${ceeps_11}                                 z erate ${ceeps_22}                                xy erate ${ceeps_01}                                xz erate ${ceeps_02}                                yz erate ${ceeps_12}                                remap x
fix             1 all deform 1  x erate -7.505611e-05                                 y erate -5.526171e-05                                 z erate ${ceeps_22}                                xy erate ${ceeps_01}                                xz erate ${ceeps_02}                                yz erate ${ceeps_12}                                remap x
fix             1 all deform 1  x erate -7.505611e-05                                 y erate -5.526171e-05                                 z erate 2.677758e-05                                xy erate ${ceeps_01}                                xz erate ${ceeps_02}                                yz erate ${ceeps_12}                                remap x
fix             1 all deform 1  x erate -7.505611e-05                                 y erate -5.526171e-05                                 z erate 2.677758e-05                                xy erate 2.367888e-07                                xz erate ${ceeps_02}                                yz erate ${ceeps_12}                                remap x
fix             1 all deform 1  x erate -7.505611e-05                                 y erate -5.526171e-05                                 z erate 2.677758e-05                                xy erate 2.367888e-07                                xz erate 5.199581e-06                                yz erate ${ceeps_12}                                remap x
fix             1 all deform 1  x erate -7.505611e-05                                 y erate -5.526171e-05                                 z erate 2.677758e-05                                xy erate 2.367888e-07                                xz erate 5.199581e-06                                yz erate -1.633559e-05                                remap x

#  Setting 2fs timesteps
#timestep        dts #2.0  #(in wrapper)
timestep        ${dts} #2.0
timestep        0.002 

#  Running a molecular dynamics simulation for 2000000 timesteps
#run             nts #2000000  #(in wrapper)
run             ${nts} #2000000
run             23910 
Neighbor list info ...
  1 neighbor list requests
  update every 1 steps, delay 0 steps, check yes
  max neighbors/atom: 2000, page size: 100000
  master list distance cutoff = 5.77118
  ghost atom cutoff = 5.77118
Memory usage per processor = 2.32678 Mbytes
---------------- Step        4 ----- CPU =      0.0000 (sec) ----------------
Step     =              4 CPU      = 0 Temp     =               0 
Press    = 6.34165e-05 PotEng   = -832.627 KinEng   = 0 
E_vdwl   = -832.627 E_coul   = 0 E_pair   = -832.627 
E_bond   = 0 E_angle  = 0 E_dihed  = 0 
Lx       = 10.8619 Ly       = 16.2928 Lz       = 21.7238 
Volume   = 3844.49 Pxx      = 6.68711e-05 Pyy      = 6.04409e-05 
Pzz      = 6.29375e-05 Pxy      = 1.66606 Pxz      = -0.0760888 
Pyz      = 0.43727 v_eb     = 0 v_ev     = 0 
v_et     = 0 v_ew     = -832.627 v_ep     = 0 
---------------- Step      500 ----- CPU =      0.0914 (sec) ----------------
Step     =            500 CPU      = 0.0914359 Temp     =   3.5531565e-06 
Press    = 103.982 PotEng   = -832.627 KinEng   = 8.77228e-08 
E_vdwl   = -832.627 E_coul   = 0 E_pair   = -832.627 
E_bond   = 0 E_angle  = 0 E_dihed  = 0 
Lx       = 10.8611 Ly       = 16.292 Lz       = 21.7244 
Volume   = 3844.09 Pxx      = 134.088 Pyy      = 119.392 
Pzz      = 58.4661 Pxy      = -0.27934 Pxz      = -2.87578 
Pyz      = 9.017 v_eb     = 0 v_ev     = 0 
v_et     = 0 v_ew     = -832.627 v_ep     = 0 
---------------- Step     1000 ----- CPU =      0.1826 (sec) ----------------
Step     =           1000 CPU      = 0.182581 Temp     =   2.9363301e-06 
Press    = 209.052 PotEng   = -832.627 KinEng   = 7.24941e-08 
E_vdwl   = -832.627 E_coul   = 0 E_pair   = -832.627 
E_bond   = 0 E_angle  = 0 E_dihed  = 0 
Lx       = 10.8603 Ly       = 16.2911 Lz       = 21.725 
Volume   = 3843.7 Pxx      = 269.574 Pyy      = 240.035 
Pzz      = 117.548 Pxy      = -1.50884 Pxz      = -5.7736 
Pyz      = 17.99 v_eb     = 0 v_ev     = 0 
v_et     = 0 v_ew     = -832.627 v_ep     = 0 
---------------- Step     1500 ----- CPU =      0.2745 (sec) ----------------
Step     =           1500 CPU      = 0.274456 Temp     =   3.0405543e-06 
Press    = 314.16 PotEng   = -832.627 KinEng   = 7.50673e-08 
E_vdwl   = -832.627 E_coul   = 0 E_pair   = -832.627 
E_bond   = 0 E_angle  = 0 E_dihed  = 0 
Lx       = 10.8595 Ly       = 16.2902 Lz       = 21.7255 
Volume   = 3843.3 Pxx      = 405.102 Pyy      = 360.723 
Pzz      = 176.656 Pxy      = -2.06661 Pxz      = -8.70792 
Pyz      = 27.1581 v_eb     = 0 v_ev     = 0 
v_et     = 0 v_ew     = -832.627 v_ep     = 0 
---------------- Step     2000 ----- CPU =      0.3662 (sec) ----------------
Step     =           2000 CPU      = 0.36622 Temp     =   3.7053997e-06 
Press    = 419.306 PotEng   = -832.627 KinEng   = 9.14815e-08 
E_vdwl   = -832.627 E_coul   = 0 E_pair   = -832.627 
E_bond   = 0 E_angle  = 0 E_dihed  = 0 
Lx       = 10.8586 Ly       = 16.2893 Lz       = 21.7261 
Volume   = 3842.9 Pxx      = 540.673 Pyy      = 481.456 
Pzz      = 235.79 Pxy      = -1.74975 Pxz      = -11.6777 
Pyz      = 36.5431 v_eb     = 0 v_ev     = 0 
v_et     = 0 v_ew     = -832.627 v_ep     = 0 
---------------- Step     2500 ----- CPU =      0.4660 (sec) ----------------
Step     =           2500 CPU      = 0.465995 Temp     =   3.9188663e-06 
Press    = 524.491 PotEng   = -832.627 KinEng   = 9.67517e-08 
E_vdwl   = -832.627 E_coul   = 0 E_pair   = -832.627 
E_bond   = 0 E_angle  = 0 E_dihed  = 0 
Lx       = 10.8578 Ly       = 16.2884 Lz       = 21.7267 
Volume   = 3842.5 Pxx      = 676.286 Pyy      = 602.235 
Pzz      = 294.95 Pxy      = -0.813439 Pxz      = -14.6649 
Pyz      = 46.0575 v_eb     = 0 v_ev     = 0 
v_et     = 0 v_ew     = -832.627 v_ep     = 0 
---------------- Step     3000 ----- CPU =      0.5650 (sec) ----------------
Step     =           3000 CPU      = 0.564963 Temp     =   3.6896222e-06 
Press    = 629.713 PotEng   = -832.627 KinEng   = 9.10919e-08 
E_vdwl   = -832.627 E_coul   = 0 E_pair   = -832.627 
E_bond   = 0 E_angle  = 0 E_dihed  = 0 
Lx       = 10.857 Ly       = 16.2875 Lz       = 21.7273 
Volume   = 3842.1 Pxx      = 811.943 Pyy      = 723.059 
Pzz      = 354.136 Pxy      = 0.188672 Pxz      = -17.6455 
Pyz      = 55.5573 v_eb     = 0 v_ev     = 0 
v_et     = 0 v_ew     = -832.627 v_ep     = 0 
---------------- Step     3500 ----- CPU =      0.6640 (sec) ----------------
Step     =           3500 CPU      = 0.664012 Temp     =   3.5612156e-06 
Press    = 734.973 PotEng   = -832.626 KinEng   = 8.79217e-08 
E_vdwl   = -832.626 E_coul   = 0 E_pair   = -832.626 
E_bond   = 0 E_angle  = 0 E_dihed  = 0 
Lx       = 10.8562 Ly       = 16.2866 Lz       = 21.7279 
Volume   = 3841.71 Pxx      = 947.642 Pyy      = 843.929 
Pzz      = 413.348 Pxy      = 0.6979 Pxz      = -20.6008 
Pyz      = 64.9151 v_eb     = 0 v_ev     = 0 
v_et     = 0 v_ew     = -832.626 v_ep     = 0 
---------------- Step     4000 ----- CPU =      0.7624 (sec) ----------------
Step     =           4000 CPU      = 0.762425 Temp     =    3.195766e-06 
Press    = 840.271 PotEng   = -832.626 KinEng   = 7.88993e-08 
E_vdwl   = -832.626 E_coul   = 0 E_pair   = -832.626 
E_bond   = 0 E_angle  = 0 E_dihed  = 0 
Lx       = 10.8554 Ly       = 16.2857 Lz       = 21.7284 
Volume   = 3841.31 Pxx      = 1083.38 Pyy      = 964.844 
Pzz      = 472.585 Pxy      = 0.420473 Pxz      = -23.5253 
Pyz      = 74.0783 v_eb     = 0 v_ev     = 0 
v_et     = 0 v_ew     = -832.626 v_ep     = 0 
---------------- Step     4500 ----- CPU =      0.8665 (sec) ----------------
Step     =           4500 CPU      = 0.866458 Temp     =   3.5335404e-06 
Press    = 945.608 PotEng   = -832.626 KinEng   = 8.72385e-08 
E_vdwl   = -832.626 E_coul   = 0 E_pair   = -832.626 
E_bond   = 0 E_angle  = 0 E_dihed  = 0 
Lx       = 10.8546 Ly       = 16.2848 Lz       = 21.729 
Volume   = 3840.91 Pxx      = 1219.17 Pyy      = 1085.81 
Pzz      = 531.849 Pxy      = -0.552265 Pxz      = -26.4271 
Pyz      = 83.0849 v_eb     = 0 v_ev     = 0 
v_et     = 0 v_ew     = -832.626 v_ep     = 0 
---------------- Step     5000 ----- CPU =      0.9651 (sec) ----------------
Step     =           5000 CPU      = 0.965148 Temp     =   3.5282584e-06 
Press    = 1050.98 PotEng   = -832.625 KinEng   = 8.71081e-08 
E_vdwl   = -832.625 E_coul   = 0 E_pair   = -832.625 
E_bond   = 0 E_angle  = 0 E_dihed  = 0 
Lx       = 10.8538 Ly       = 16.2839 Lz       = 21.7296 
Volume   = 3840.51 Pxx      = 1355 Pyy      = 1206.81 
Pzz      = 591.138 Pxy      = -1.8134 Pxz      = -29.3222 
Pyz      = 92.0391 v_eb     = 0 v_ev     = 0 
v_et     = 0 v_ew     = -832.625 v_ep     = 0 
---------------- Step     5500 ----- CPU =      1.0646 (sec) ----------------
Step     =           5500 CPU      = 1.06464 Temp     =   3.5683636e-06 
Press    = 1156.4 PotEng   = -832.625 KinEng   = 8.80982e-08 
E_vdwl   = -832.625 E_coul   = 0 E_pair   = -832.625 
E_bond   = 0 E_angle  = 0 E_dihed  = 0 
Lx       = 10.8529 Ly       = 16.283 Lz       = 21.7302 
Volume   = 3840.11 Pxx      = 1490.87 Pyy      = 1327.86 
Pzz      = 650.454 Pxy      = -2.84703 Pxz      = -32.2275 
Pyz      = 101.06 v_eb     = 0 v_ev     = 0 
v_et     = 0 v_ew     = -832.625 v_ep     = 0 
---------------- Step     6000 ----- CPU =      1.1594 (sec) ----------------
Step     =           6000 CPU      = 1.15941 Temp     =   2.8785929e-06 
Press    = 1261.85 PotEng   = -832.625 KinEng   = 7.10687e-08 
E_vdwl   = -832.625 E_coul   = 0 E_pair   = -832.625 
E_bond   = 0 E_angle  = 0 E_dihed  = 0 
Lx       = 10.8521 Ly       = 16.2821 Lz       = 21.7308 
Volume   = 3839.72 Pxx      = 1626.78 Pyy      = 1448.96 
Pzz      = 709.795 Pxy      = -3.26416 Pxz      = -35.1547 
Pyz      = 110.233 v_eb     = 0 v_ev     = 0 
v_et     = 0 v_ew     = -832.625 v_ep     = 0 
---------------- Step     6500 ----- CPU =      1.2530 (sec) ----------------
Step     =           6500 CPU      = 1.25302 Temp     =   3.1298738e-06 
Press    = 1367.33 PotEng   = -832.624 KinEng   = 7.72725e-08 
E_vdwl   = -832.624 E_coul   = 0 E_pair   = -832.624 
E_bond   = 0 E_angle  = 0 E_dihed  = 0 
Lx       = 10.8513 Ly       = 16.2812 Lz       = 21.7314 
Volume   = 3839.32 Pxx      = 1762.74 Pyy      = 1570.1 
Pzz      = 769.162 Pxy      = -2.96146 Pxz      = -38.107 
Pyz      = 119.576 v_eb     = 0 v_ev     = 0 
v_et     = 0 v_ew     = -832.624 v_ep     = 0 
---------------- Step     7000 ----- CPU =      1.3451 (sec) ----------------
Step     =           7000 CPU      = 1.34515 Temp     =   3.7900852e-06 
Press    = 1472.86 PotEng   = -832.624 KinEng   = 9.35722e-08 
E_vdwl   = -832.624 E_coul   = 0 E_pair   = -832.624 
E_bond   = 0 E_angle  = 0 E_dihed  = 0 
Lx       = 10.8505 Ly       = 16.2803 Lz       = 21.7319 
Volume   = 3838.92 Pxx      = 1898.74 Pyy      = 1691.29 
Pzz      = 828.556 Pxy      = -2.14373 Pxz      = -41.0796 
Pyz      = 129.042 v_eb     = 0 v_ev     = 0 
v_et     = 0 v_ew     = -832.624 v_ep     = 0 
---------------- Step     7500 ----- CPU =      1.4361 (sec) ----------------
Step     =           7500 CPU      = 1.43605 Temp     =   3.5848919e-06 
Press    = 1578.43 PotEng   = -832.623 KinEng   = 8.85063e-08 
E_vdwl   = -832.623 E_coul   = 0 E_pair   = -832.623 
E_bond   = 0 E_angle  = 0 E_dihed  = 0 
Lx       = 10.8497 Ly       = 16.2794 Lz       = 21.7325 
Volume   = 3838.52 Pxx      = 2034.78 Pyy      = 1812.53 
Pzz      = 887.975 Pxy      = -1.21622 Pxz      = -44.0623 
Pyz      = 138.541 v_eb     = 0 v_ev     = 0 
v_et     = 0 v_ew     = -832.623 v_ep     = 0 
---------------- Step     8000 ----- CPU =      1.5271 (sec) ----------------
Step     =           8000 CPU      = 1.5271 Temp     =   3.6572214e-06 
Press    = 1684.03 PotEng   = -832.622 KinEng   = 9.0292e-08 
E_vdwl   = -832.622 E_coul   = 0 E_pair   = -832.622 
E_bond   = 0 E_angle  = 0 E_dihed  = 0 
Lx       = 10.8489 Ly       = 16.2785 Lz       = 21.7331 
Volume   = 3838.12 Pxx      = 2170.87 Pyy      = 1933.8 
Pzz      = 947.421 Pxy      = -0.60603 Pxz      = -47.043 
Pyz      = 147.981 v_eb     = 0 v_ev     = 0 
v_et     = 0 v_ew     = -832.622 v_ep     = 0 
---------------- Step     8500 ----- CPU =      1.6182 (sec) ----------------
Step     =           8500 CPU      = 1.61817 Temp     =   3.8687114e-06 
Press    = 1789.67 PotEng   = -832.622 KinEng   = 9.55134e-08 
E_vdwl   = -832.622 E_coul   = 0 E_pair   = -832.622 
E_bond   = 0 E_angle  = 0 E_dihed  = 0 
Lx       = 10.848 Ly       = 16.2776 Lz       = 21.7337 
Volume   = 3837.73 Pxx      = 2307 Pyy      = 2055.13 
Pzz      = 1006.89 Pxy      = -0.592325 Pxz      = -50.0111 
Pyz      = 157.295 v_eb     = 0 v_ev     = 0 
v_et     = 0 v_ew     = -832.622 v_ep     = 0 
---------------- Step     9000 ----- CPU =      1.7092 (sec) ----------------
Step     =           9000 CPU      = 1.70922 Temp     =   3.3173739e-06 
Press    = 1895.35 PotEng   = -832.621 KinEng   = 8.19016e-08 
E_vdwl   = -832.621 E_coul   = 0 E_pair   = -832.621 
E_bond   = 0 E_angle  = 0 E_dihed  = 0 
Lx       = 10.8472 Ly       = 16.2766 Lz       = 21.7343 
Volume   = 3837.33 Pxx      = 2443.17 Pyy      = 2176.5 
Pzz      = 1066.39 Pxy      = -1.21061 Pxz      = -52.9596 
Pyz      = 166.465 v_eb     = 0 v_ev     = 0 
v_et     = 0 v_ew     = -832.621 v_ep     = 0 
---------------- Step     9500 ----- CPU =      1.8011 (sec) ----------------
Step     =           9500 CPU      = 1.80112 Temp     =   3.2312033e-06 
Press    = 2001.07 PotEng   = -832.621 KinEng   = 7.97742e-08 
E_vdwl   = -832.621 E_coul   = 0 E_pair   = -832.621 
E_bond   = 0 E_angle  = 0 E_dihed  = 0 
Lx       = 10.8464 Ly       = 16.2757 Lz       = 21.7348 
Volume   = 3836.93 Pxx      = 2579.38 Pyy      = 2297.92 
Pzz      = 1125.91 Pxy      = -2.25868 Pxz      = -55.8865 
Pyz      = 175.523 v_eb     = 0 v_ev     = 0 
v_et     = 0 v_ew     = -832.621 v_ep     = 0 
---------------- Step    10000 ----- CPU =      1.8939 (sec) ----------------
Step     =          10000 CPU      = 1.89389 Temp     =   3.9166655e-06 
Press    = 2106.83 PotEng   = -832.62 KinEng   = 9.66973e-08 
E_vdwl   = -832.62 E_coul   = 0 E_pair   = -832.62 
E_bond   = 0 E_angle  = 0 E_dihed  = 0 
Lx       = 10.8456 Ly       = 16.2748 Lz       = 21.7354 
Volume   = 3836.53 Pxx      = 2715.64 Pyy      = 2419.38 
Pzz      = 1185.46 Pxy      = -3.3896 Pxz      = -58.7951 
Pyz      = 184.531 v_eb     = 0 v_ev     = 0 
v_et     = 0 v_ew     = -832.62 v_ep     = 0 
---------------- Step    10500 ----- CPU =      1.9854 (sec) ----------------
Step     =          10500 CPU      = 1.98536 Temp     =   3.1491575e-06 
Press    = 2212.62 PotEng   = -832.619 KinEng   = 7.77486e-08 
E_vdwl   = -832.619 E_coul   = 0 E_pair   = -832.619 
E_bond   = 0 E_angle  = 0 E_dihed  = 0 
Lx       = 10.8448 Ly       = 16.2739 Lz       = 21.736 
Volume   = 3836.13 Pxx      = 2851.94 Pyy      = 2540.89 
Pzz      = 1245.04 Pxy      = -4.2472 Pxz      = -61.6937 
Pyz      = 193.565 v_eb     = 0 v_ev     = 0 
v_et     = 0 v_ew     = -832.619 v_ep     = 0 
---------------- Step    11000 ----- CPU =      2.0766 (sec) ----------------
Step     =          11000 CPU      = 2.07661 Temp     =   3.2825113e-06 
Press    = 2318.45 PotEng   = -832.618 KinEng   = 8.10409e-08 
E_vdwl   = -832.618 E_coul   = 0 E_pair   = -832.618 
E_bond   = 0 E_angle  = 0 E_dihed  = 0 
Lx       = 10.844 Ly       = 16.273 Lz       = 21.7366 
Volume   = 3835.74 Pxx      = 2988.28 Pyy      = 2662.44 
Pzz      = 1304.64 Pxy      = -4.59081 Pxz      = -64.5933 
Pyz      = 202.685 v_eb     = 0 v_ev     = 0 
v_et     = 0 v_ew     = -832.618 v_ep     = 0 
---------------- Step    11500 ----- CPU =      2.1680 (sec) ----------------
Step     =          11500 CPU      = 2.16799 Temp     =   3.2730801e-06 
Press    = 2424.33 PotEng   = -832.617 KinEng   = 8.08081e-08 
E_vdwl   = -832.617 E_coul   = 0 E_pair   = -832.617 
E_bond   = 0 E_angle  = 0 E_dihed  = 0 
Lx       = 10.8432 Ly       = 16.2721 Lz       = 21.7372 
Volume   = 3835.34 Pxx      = 3124.67 Pyy      = 2784.04 
Pzz      = 1364.27 Pxy      = -4.3673 Pxz      = -67.5058 
Pyz      = 211.924 v_eb     = 0 v_ev     = 0 
v_et     = 0 v_ew     = -832.617 v_ep     = 0 
---------------- Step    12000 ----- CPU =      2.2593 (sec) ----------------
Step     =          12000 CPU      = 2.25934 Temp     =   3.7840014e-06 
Press    = 2530.24 PotEng   = -832.617 KinEng   = 9.3422e-08 
E_vdwl   = -832.617 E_coul   = 0 E_pair   = -832.617 
E_bond   = 0 E_angle  = 0 E_dihed  = 0 
Lx       = 10.8423 Ly       = 16.2712 Lz       = 21.7378 
Volume   = 3834.94 Pxx      = 3261.1 Pyy      = 2905.68 
Pzz      = 1423.92 Pxy      = -3.71271 Pxz      = -70.441 
Pyz      = 221.279 v_eb     = 0 v_ev     = 0 
v_et     = 0 v_ew     = -832.617 v_ep     = 0 
---------------- Step    12500 ----- CPU =      2.3509 (sec) ----------------
Step     =          12500 CPU      = 2.35092 Temp     =    3.414409e-06 
Press    = 2636.18 PotEng   = -832.616 KinEng   = 8.42973e-08 
E_vdwl   = -832.616 E_coul   = 0 E_pair   = -832.616 
E_bond   = 0 E_angle  = 0 E_dihed  = 0 
Lx       = 10.8415 Ly       = 16.2703 Lz       = 21.7383 
Volume   = 3834.54 Pxx      = 3397.57 Pyy      = 3027.37 
Pzz      = 1483.6 Pxy      = -2.89231 Pxz      = -73.4038 
Pyz      = 230.718 v_eb     = 0 v_ev     = 0 
v_et     = 0 v_ew     = -832.616 v_ep     = 0 
---------------- Step    13000 ----- CPU =      2.4437 (sec) ----------------
Step     =          13000 CPU      = 2.44375 Temp     =    3.446612e-06 
Press    = 2742.17 PotEng   = -832.615 KinEng   = 8.50923e-08 
E_vdwl   = -832.615 E_coul   = 0 E_pair   = -832.615 
E_bond   = 0 E_angle  = 0 E_dihed  = 0 
Lx       = 10.8407 Ly       = 16.2694 Lz       = 21.7389 
Volume   = 3834.14 Pxx      = 3534.09 Pyy      = 3149.11 
Pzz      = 1543.31 Pxy      = -2.20624 Pxz      = -76.393 
Pyz      = 240.192 v_eb     = 0 v_ev     = 0 
v_et     = 0 v_ew     = -832.615 v_ep     = 0 
---------------- Step    13500 ----- CPU =      2.5354 (sec) ----------------
Step     =          13500 CPU      = 2.53537 Temp     =   3.1332158e-06 
Press    = 2848.19 PotEng   = -832.614 KinEng   = 7.7355e-08 
E_vdwl   = -832.614 E_coul   = 0 E_pair   = -832.614 
E_bond   = 0 E_angle  = 0 E_dihed  = 0 
Lx       = 10.8399 Ly       = 16.2685 Lz       = 21.7395 
Volume   = 3833.75 Pxx      = 3670.65 Pyy      = 3270.89 
Pzz      = 1603.04 Pxy      = -1.89482 Pxz      = -79.4007 
Pyz      = 249.646 v_eb     = 0 v_ev     = 0 
v_et     = 0 v_ew     = -832.614 v_ep     = 0 
---------------- Step    14000 ----- CPU =      2.6271 (sec) ----------------
Step     =          14000 CPU      = 2.62707 Temp     =   3.2391892e-06 
Press    = 2954.26 PotEng   = -832.613 KinEng   = 7.99713e-08 
E_vdwl   = -832.613 E_coul   = 0 E_pair   = -832.613 
E_bond   = 0 E_angle  = 0 E_dihed  = 0 
Lx       = 10.8391 Ly       = 16.2676 Lz       = 21.7401 
Volume   = 3833.35 Pxx      = 3807.25 Pyy      = 3392.72 
Pzz      = 1662.8 Pxy      = -2.07253 Pxz      = -82.414 
Pyz      = 259.036 v_eb     = 0 v_ev     = 0 
v_et     = 0 v_ew     = -832.613 v_ep     = 0 
---------------- Step    14500 ----- CPU =      2.7188 (sec) ----------------
Step     =          14500 CPU      = 2.71878 Temp     =   3.5428971e-06 
Press    = 3060.36 PotEng   = -832.612 KinEng   = 8.74695e-08 
E_vdwl   = -832.612 E_coul   = 0 E_pair   = -832.612 
E_bond   = 0 E_angle  = 0 E_dihed  = 0 
Lx       = 10.8383 Ly       = 16.2667 Lz       = 21.7407 
Volume   = 3832.95 Pxx      = 3943.89 Pyy      = 3514.59 
Pzz      = 1722.59 Pxy      = -2.70636 Pxz      = -85.4177 
Pyz      = 268.336 v_eb     = 0 v_ev     = 0 
v_et     = 0 v_ew     = -832.612 v_ep     = 0 
---------------- Step    15000 ----- CPU =      2.8109 (sec) ----------------
Step     =          15000 CPU      = 2.81086 Temp     =   3.5786096e-06 
Press    = 3166.5 PotEng   = -832.611 KinEng   = 8.83512e-08 
E_vdwl   = -832.611 E_coul   = 0 E_pair   = -832.611 
E_bond   = 0 E_angle  = 0 E_dihed  = 0 
Lx       = 10.8374 Ly       = 16.2658 Lz       = 21.7412 
Volume   = 3832.55 Pxx      = 4080.58 Pyy      = 3636.51 
Pzz      = 1782.4 Pxy      = -3.63867 Pxz      = -88.3979 
Pyz      = 277.542 v_eb     = 0 v_ev     = 0 
v_et     = 0 v_ew     = -832.611 v_ep     = 0 
---------------- Step    15500 ----- CPU =      2.9027 (sec) ----------------
Step     =          15500 CPU      = 2.90268 Temp     =   3.6613995e-06 
Press    = 3272.68 PotEng   = -832.609 KinEng   = 9.03951e-08 
E_vdwl   = -832.609 E_coul   = 0 E_pair   = -832.609 
E_bond   = 0 E_angle  = 0 E_dihed  = 0 
Lx       = 10.8366 Ly       = 16.2649 Lz       = 21.7418 
Volume   = 3832.15 Pxx      = 4217.31 Pyy      = 3758.48 
Pzz      = 1842.24 Pxy      = -4.64193 Pxz      = -91.3455 
Pyz      = 286.67 v_eb     = 0 v_ev     = 0 
v_et     = 0 v_ew     = -832.609 v_ep     = 0 
---------------- Step    16000 ----- CPU =      2.9942 (sec) ----------------
Step     =          16000 CPU      = 2.99422 Temp     =   2.9802657e-06 
Press    = 3378.89 PotEng   = -832.608 KinEng   = 7.35788e-08 
E_vdwl   = -832.608 E_coul   = 0 E_pair   = -832.608 
E_bond   = 0 E_angle  = 0 E_dihed  = 0 
Lx       = 10.8358 Ly       = 16.264 Lz       = 21.7424 
Volume   = 3831.76 Pxx      = 4354.09 Pyy      = 3880.49 
Pzz      = 1902.1 Pxy      = -5.48568 Pxz      = -94.2581 
Pyz      = 295.748 v_eb     = 0 v_ev     = 0 
v_et     = 0 v_ew     = -832.608 v_ep     = 0 
---------------- Step    16500 ----- CPU =      3.0908 (sec) ----------------
Step     =          16500 CPU      = 3.09077 Temp     =   3.3784373e-06 
Press    = 3485.15 PotEng   = -832.607 KinEng   = 8.34092e-08 
E_vdwl   = -832.607 E_coul   = 0 E_pair   = -832.607 
E_bond   = 0 E_angle  = 0 E_dihed  = 0 
Lx       = 10.835 Ly       = 16.2631 Lz       = 21.743 
Volume   = 3831.36 Pxx      = 4490.9 Pyy      = 4002.55 
Pzz      = 1961.99 Pxy      = -5.99624 Pxz      = -97.141 
Pyz      = 304.815 v_eb     = 0 v_ev     = 0 
v_et     = 0 v_ew     = -832.607 v_ep     = 0 
---------------- Step    17000 ----- CPU =      3.1819 (sec) ----------------
Step     =          17000 CPU      = 3.18193 Temp     =   3.3534506e-06 
Press    = 3591.44 PotEng   = -832.606 KinEng   = 8.27923e-08 
E_vdwl   = -832.606 E_coul   = 0 E_pair   = -832.606 
E_bond   = 0 E_angle  = 0 E_dihed  = 0 
Lx       = 10.8342 Ly       = 16.2622 Lz       = 21.7436 
Volume   = 3830.96 Pxx      = 4627.77 Pyy      = 4124.65 
Pzz      = 2021.91 Pxy      = -6.09465 Pxz      = -100.007 
Pyz      = 313.906 v_eb     = 0 v_ev     = 0 
v_et     = 0 v_ew     = -832.606 v_ep     = 0 
---------------- Step    17500 ----- CPU =      3.2732 (sec) ----------------
Step     =          17500 CPU      = 3.27325 Temp     =   2.8106641e-06 
Press    = 3697.77 PotEng   = -832.604 KinEng   = 6.93916e-08 
E_vdwl   = -832.604 E_coul   = 0 E_pair   = -832.604 
E_bond   = 0 E_angle  = 0 E_dihed  = 0 
Lx       = 10.8334 Ly       = 16.2613 Lz       = 21.7442 
Volume   = 3830.56 Pxx      = 4764.67 Pyy      = 4246.8 
Pzz      = 2081.85 Pxy      = -5.8064 Pxz      = -102.871 
Pyz      = 323.049 v_eb     = 0 v_ev     = 0 
v_et     = 0 v_ew     = -832.604 v_ep     = 0 
---------------- Step    18000 ----- CPU =      3.3643 (sec) ----------------
Step     =          18000 CPU      = 3.36427 Temp     =   4.0750721e-06 
Press    = 3804.14 PotEng   = -832.603 KinEng   = 1.00608e-07 
E_vdwl   = -832.603 E_coul   = 0 E_pair   = -832.603 
E_bond   = 0 E_angle  = 0 E_dihed  = 0 
Lx       = 10.8326 Ly       = 16.2604 Lz       = 21.7447 
Volume   = 3830.17 Pxx      = 4901.62 Pyy      = 4369 
Pzz      = 2141.82 Pxy      = -5.24482 Pxz      = -105.751 
Pyz      = 332.262 v_eb     = 0 v_ev     = 0 
v_et     = 0 v_ew     = -832.603 v_ep     = 0 
---------------- Step    18500 ----- CPU =      3.4559 (sec) ----------------
Step     =          18500 CPU      = 3.45593 Temp     =   3.6428802e-06 
Press    = 3910.55 PotEng   = -832.602 KinEng   = 8.99379e-08 
E_vdwl   = -832.602 E_coul   = 0 E_pair   = -832.602 
E_bond   = 0 E_angle  = 0 E_dihed  = 0 
Lx       = 10.8317 Ly       = 16.2595 Lz       = 21.7453 
Volume   = 3829.77 Pxx      = 5038.61 Pyy      = 4491.24 
Pzz      = 2201.82 Pxy      = -4.57617 Pxz      = -108.661 
Pyz      = 341.549 v_eb     = 0 v_ev     = 0 
v_et     = 0 v_ew     = -832.602 v_ep     = 0 
---------------- Step    19000 ----- CPU =      3.5471 (sec) ----------------
Step     =          19000 CPU      = 3.54709 Temp     =   3.3454779e-06 
Press    = 4017 PotEng   = -832.6 KinEng   = 8.25955e-08 
E_vdwl   = -832.6 E_coul   = 0 E_pair   = -832.6 
E_bond   = 0 E_angle  = 0 E_dihed  = 0 
Lx       = 10.8309 Ly       = 16.2586 Lz       = 21.7459 
Volume   = 3829.37 Pxx      = 5175.64 Pyy      = 4613.52 
Pzz      = 2261.84 Pxy      = -3.97718 Pxz      = -111.611 
Pyz      = 350.906 v_eb     = 0 v_ev     = 0 
v_et     = 0 v_ew     = -832.6 v_ep     = 0 
---------------- Step    19500 ----- CPU =      3.6381 (sec) ----------------
Step     =          19500 CPU      = 3.63811 Temp     =   2.9418333e-06 
Press    = 4123.49 PotEng   = -832.599 KinEng   = 7.263e-08 
E_vdwl   = -832.599 E_coul   = 0 E_pair   = -832.599 
E_bond   = 0 E_angle  = 0 E_dihed  = 0 
Lx       = 10.8301 Ly       = 16.2577 Lz       = 21.7465 
Volume   = 3828.97 Pxx      = 5312.72 Pyy      = 4735.86 
Pzz      = 2321.89 Pxy      = -3.59607 Pxz      = -114.603 
Pyz      = 360.315 v_eb     = 0 v_ev     = 0 
v_et     = 0 v_ew     = -832.599 v_ep     = 0 
---------------- Step    20000 ----- CPU =      3.7294 (sec) ----------------
Step     =          20000 CPU      = 3.72942 Temp     =   3.9113429e-06 
Press    = 4230.01 PotEng   = -832.598 KinEng   = 9.65659e-08 
E_vdwl   = -832.598 E_coul   = 0 E_pair   = -832.598 
E_bond   = 0 E_angle  = 0 E_dihed  = 0 
Lx       = 10.8293 Ly       = 16.2568 Lz       = 21.7471 
Volume   = 3828.57 Pxx      = 5449.84 Pyy      = 4858.24 
Pzz      = 2381.96 Pxy      = -3.52474 Pxz      = -117.631 
Pyz      = 369.756 v_eb     = 0 v_ev     = 0 
v_et     = 0 v_ew     = -832.598 v_ep     = 0 
---------------- Step    20500 ----- CPU =      3.8206 (sec) ----------------
Step     =          20500 CPU      = 3.82059 Temp     =   3.9020563e-06 
Press    = 4336.57 PotEng   = -832.596 KinEng   = 9.63367e-08 
E_vdwl   = -832.596 E_coul   = 0 E_pair   = -832.596 
E_bond   = 0 E_angle  = 0 E_dihed  = 0 
Lx       = 10.8285 Ly       = 16.2559 Lz       = 21.7476 
Volume   = 3828.18 Pxx      = 5587 Pyy      = 4980.66 
Pzz      = 2442.06 Pxy      = -3.78644 Pxz      = -120.685 
Pyz      = 379.205 v_eb     = 0 v_ev     = 0 
v_et     = 0 v_ew     = -832.596 v_ep     = 0 
---------------- Step    21000 ----- CPU =      3.9134 (sec) ----------------
Step     =          21000 CPU      = 3.91339 Temp     =   3.7040961e-06 
Press    = 4443.18 PotEng   = -832.594 KinEng   = 9.14493e-08 
E_vdwl   = -832.594 E_coul   = 0 E_pair   = -832.594 
E_bond   = 0 E_angle  = 0 E_dihed  = 0 
Lx       = 10.8277 Ly       = 16.255 Lz       = 21.7482 
Volume   = 3827.78 Pxx      = 5724.21 Pyy      = 5103.13 
Pzz      = 2502.19 Pxy      = -4.33895 Pxz      = -123.749 
Pyz      = 388.641 v_eb     = 0 v_ev     = 0 
v_et     = 0 v_ew     = -832.594 v_ep     = 0 
---------------- Step    21500 ----- CPU =      4.0047 (sec) ----------------
Step     =          21500 CPU      = 4.00466 Temp     =   3.3225399e-06 
Press    = 4549.82 PotEng   = -832.593 KinEng   = 8.20291e-08 
E_vdwl   = -832.593 E_coul   = 0 E_pair   = -832.593 
E_bond   = 0 E_angle  = 0 E_dihed  = 0 
Lx       = 10.8269 Ly       = 16.2541 Lz       = 21.7488 
Volume   = 3827.38 Pxx      = 5861.46 Pyy      = 5225.65 
Pzz      = 2562.34 Pxy      = -5.08997 Pxz      = -126.808 
Pyz      = 398.047 v_eb     = 0 v_ev     = 0 
v_et     = 0 v_ew     = -832.593 v_ep     = 0 
---------------- Step    22000 ----- CPU =      4.0974 (sec) ----------------
Step     =          22000 CPU      = 4.09741 Temp     =   3.7947108e-06 
Press    = 4656.5 PotEng   = -832.591 KinEng   = 9.36864e-08 
E_vdwl   = -832.591 E_coul   = 0 E_pair   = -832.591 
E_bond   = 0 E_angle  = 0 E_dihed  = 0 
Lx       = 10.826 Ly       = 16.2532 Lz       = 21.7494 
Volume   = 3826.98 Pxx      = 5998.75 Pyy      = 5348.21 
Pzz      = 2622.52 Pxy      = -5.91979 Pxz      = -129.847 
Pyz      = 407.41 v_eb     = 0 v_ev     = 0 
v_et     = 0 v_ew     = -832.591 v_ep     = 0 
---------------- Step    22500 ----- CPU =      4.1887 (sec) ----------------
Step     =          22500 CPU      = 4.18869 Temp     =   4.1030011e-06 
Press    = 4763.21 PotEng   = -832.59 KinEng   = 1.01298e-07 
E_vdwl   = -832.59 E_coul   = 0 E_pair   = -832.59 
E_bond   = 0 E_angle  = 0 E_dihed  = 0 
Lx       = 10.8252 Ly       = 16.2523 Lz       = 21.75 
Volume   = 3826.58 Pxx      = 6136.09 Pyy      = 5470.82 
Pzz      = 2682.73 Pxy      = -6.70555 Pxz      = -132.853 
Pyz      = 416.724 v_eb     = 0 v_ev     = 0 
v_et     = 0 v_ew     = -832.59 v_ep     = 0 
---------------- Step    23000 ----- CPU =      4.2807 (sec) ----------------
Step     =          23000 CPU      = 4.28071 Temp     =   3.5922948e-06 
Press    = 4869.97 PotEng   = -832.588 KinEng   = 8.8689e-08 
E_vdwl   = -832.588 E_coul   = 0 E_pair   = -832.588 
E_bond   = 0 E_angle  = 0 E_dihed  = 0 
Lx       = 10.8244 Ly       = 16.2514 Lz       = 21.7506 
Volume   = 3826.19 Pxx      = 6273.46 Pyy      = 5593.48 
Pzz      = 2742.96 Pxy      = -7.34261 Pxz      = -135.821 
Pyz      = 425.989 v_eb     = 0 v_ev     = 0 
v_et     = 0 v_ew     = -832.588 v_ep     = 0 
---------------- Step    23500 ----- CPU =      4.3722 (sec) ----------------
Step     =          23500 CPU      = 4.37216 Temp     =    3.346398e-06 
Press    = 4976.76 PotEng   = -832.586 KinEng   = 8.26182e-08 
E_vdwl   = -832.586 E_coul   = 0 E_pair   = -832.586 
E_bond   = 0 E_angle  = 0 E_dihed  = 0 
Lx       = 10.8236 Ly       = 16.2505 Lz       = 21.7511 
Volume   = 3825.79 Pxx      = 6410.89 Pyy      = 5716.18 
Pzz      = 2803.22 Pxy      = -7.75948 Pxz      = -138.748 
Pyz      = 435.21 v_eb     = 0 v_ev     = 0 
v_et     = 0 v_ew     = -832.586 v_ep     = 0 
---------------- Step    23914 ----- CPU =      4.4479 (sec) ----------------
Step     =          23914 CPU      = 4.44786 Temp     =   3.4744509e-06 
Press    = 5065.22 PotEng   = -832.585 KinEng   = 8.57796e-08 
E_vdwl   = -832.585 E_coul   = 0 E_pair   = -832.585 
E_bond   = 0 E_angle  = 0 E_dihed  = 0 
Lx       = 10.8229 Ly       = 16.2498 Lz       = 21.7516 
Volume   = 3825.46 Pxx      = 6524.71 Pyy      = 5817.81 
Pzz      = 2853.14 Pxy      = -7.55247 Pxz      = -140.954 
Pyz      = 442.535 v_eb     = 0 v_ev     = 0 
v_et     = 0 v_ew     = -832.585 v_ep     = 0 
Loop time of 4.4479 on 1 procs for 23910 steps with 192 atoms

Performance: 928.898 ns/day, 0.026 hours/ns, 5375.566 timesteps/s
100.0% CPU use with 1 MPI tasks x no OpenMP threads

MPI task timing breakdown:
Section |  min time  |  avg time  |  max time  |%varavg| %total
---------------------------------------------------------------
Pair    | 4.1686     | 4.1686     | 4.1686     |   0.0 | 93.72
Neigh   | 0          | 0          | 0          |   0.0 |  0.00
Comm    | 0.098478   | 0.098478   | 0.098478   |   0.0 |  2.21
Output  | 0.0022159  | 0.0022159  | 0.0022159  |   0.0 |  0.05
Modify  | 0.13916    | 0.13916    | 0.13916    |   0.0 |  3.13
Other   |            | 0.03945    |            |       |  0.89

Nlocal:    192 ave 192 max 192 min
Histogram: 1 0 0 0 0 0 0 0 0 0
Nghost:    932 ave 932 max 932 min
Histogram: 1 0 0 0 0 0 0 0 0 0
Neighs:    0 ave 0 max 0 min
Histogram: 1 0 0 0 0 0 0 0 0 0
FullNghs:  6528 ave 6528 max 6528 min
Histogram: 1 0 0 0 0 0 0 0 0 0

Total # of neighbors = 6528
Ave neighs/atom = 34
Neighbor list builds = 0
Dangerous builds = 0

#  Releasing fix deform constraint
unfix 1

##  Setting 2fs timesteps
##timestep        dts #2.0  #(in wrapper)
#timestep        ${dts} #2.0
#
##  Running a molecular dynamics simulation for relaxation of applied strain
##  during the same amount of time
##run             nts #2000000  #(in wrapper)
#run             ${nts} #2000000

#  Releasing fix constraints
unfix 3
#unfix 4

#  Stopping dump
#undump            atom_dump

# Sample initial state
#variable nss equal ${nssample0}
#fix   shak all shake 0.001 20 1000 m 1.0
#fix   wholevol all nvt temp ${tempt} ${tempt} 100.0
#include ${locbe}/sample.mod.lammps
#unfix wholevol
#unfix shak

#variable tmp equal f_stress[1]
#variable pp11 equal ${tmp}
#variable tmp equal f_stress[2]
#variable pp22 equal ${tmp}
#variable tmp equal f_stress[3]
#variable pp33 equal ${tmp}
#variable tmp equal f_stress[4]
#variable pp12 equal ${tmp}
#variable tmp equal f_stress[5]
#variable pp13 equal ${tmp}
#variable tmp equal f_stress[6]
#variable pp23 equal ${tmp}
write_restart /home/jinzhen/projects/SCEMa/examples/test1/nanoscale_output/last.6.g0_1.dump
write_restart /home/jinzhen/projects/SCEMa/examples/test1/nanoscale_restart/lcts.6.g0_1.dump
Total wall time: 0:00:04
