LAMMPS (17 Nov 2016)
variable mdt string 0
variable loco string /home/jinzhen/projects/SCEMa/examples/test1/nanoscale_log/tmp/2-1.15.0_1
variable locs string ./lammps_scripts_sisw
variable tempt equal 0.010000
# This file is for a LAMMPS simulation created by James Suter
# The system is polyethane, using the CVFF forcefield
# the simulation will heat up to 500K, cooldown to 200K and then perform unixial stretching in the x direction

##  This script should be just run once at the beginning to provide the initial
##  reference testing box, which will the be evolved using the in.lammps.strain
##  input file.

## Should we optimize the lammps call depending on the computer setup?
## suffix OMP

#  Setting units convention for the rest of the file
units           real            # default

#  Setting variables/attributes associated with each atom: charge, bonds, angles,
#  dihedrals, impropers (full)
atom_style      full

#  Setting the dimension of the simulation
dimension       3               # default

#  Setting boundary types in each dimension (periodic)
boundary        p p p

# Choose potential
pair_style	sw

# Setup neighbor style
neighbor 1.0 nsq
neigh_modify once no every 1 delay 0 check yes
read_restart /home/jinzhen/projects/SCEMa/examples/test1/nanoscale_output/last.15.g0_1.dump
  triclinic box = (-0.000949778 -0.00142467 -0.150057) to (10.8609 16.2914 21.8701) with tilt (0 0 0)
  1 by 1 by 1 MPI processor grid
  192 atoms
print 'specifically computed'
specifically computed
variable ll1 equal lx
variable ll2 equal ly
variable ll3 equal lz
variable dts equal 0.002000
variable nts equal 61710
variable ceeps_00 equal -7.792244e-06
variable ceeps_01 equal 2.363372e-07
variable ceeps_02 equal 2.431442e-06
variable ceeps_11 equal -5.163935e-06
variable ceeps_12 equal 3.641963e-06
variable ceeps_22 equal 9.935645e-05
# This file is for a LAMMPS simulation created by James Suter
# The system is polyethane, using the CVFF forcefield
# the simulation will heat up to 500K, cooldown to 200K and then perform unixial stretching in the x direction

## Should we optimize the lammps call depending on the computer setup?
## suffix OMP

pair_coeff * * ${locs}/Si.sw Si
pair_coeff * * ./lammps_scripts_sisw/Si.sw Si
Reading potential file ./lammps_scripts_sisw/Si.sw with DATE: 2007-06-11

variable eb      equal "ebond"
variable ea      equal "epair"
variable ev      equal "eangle"
variable et      equal "edihed"
variable ew      equal "evdwl"
variable ep      equal "ecoul"


##  -------------------------------------------
#   Calculate the stress-strain curve for uniaxial extension in the x direction

#  Setting to display thermodynamical information on the system every 500 steps
thermo          500

#  Setting the type of thermodynamical information to be printed: T, P, energies, dimesions, V, stress tensor
thermo_style    custom step cpu temp press pe ke evdwl ecoul epair ebond eangle edihed lx ly lz vol pxx pyy pzz pxy pxz pyz v_eb v_ev v_et v_ew v_ep

#  Setting the syntax of the printed thermodynamical information
thermo_modify   flush yes line multi format float %g format 3 %15.8g

#  Setting printing position information on all atoms every 5000 steps PE_stress_strain_x.xyz
#  file specifying atom type 1, 2 and 3 with names respectively C, C and H  (identical as
#  previous with different file name)
#dump            atom_dump all atom ${ndump} ${loco}/${mdt}_straining.atom
#dump            xyz_dump all xyz 5000    ${loco}/${mdt}_stress_strain_x.xyz
#dump_modify     xyz_dump element  C C H

#  Printing evolution of stress for comparison
variable pt equal "step"
variable pp equal "press"
variable p0 equal "pxx"
variable p1 equal "pyy"
variable p2 equal "pzz"
variable p10 equal "pxy"
variable p11 equal "pxz"
variable p12 equal "pyz"
variable p3 equal "pe"
variable p4 equal "ke"
variable p5 equal "temp"
variable p6 equal "lx"
variable p7 equal "ly"
variable p8 equal "lz"
variable p9 equal "vol"
variable evdwl equal "evdwl"
variable ecoul equal "ecoul"
variable eatom equal "epair"
variable ebond equal "ebond"
variable eangle equal "eangle"
variable edihed equal "edihed"

#  Storing initial dimensions of the box
variable lx1 equal ${p6}
variable lx1 equal 10.8618995568104
variable ly1 equal ${p7}
variable ly1 equal 16.2928493352156
variable lz1 equal ${p8}
variable lz1 equal 22.0201140172711

#  Compute current stress using sampling over time and fixed NVT conditions
#fix 1e all print 1 "${pt} ${pp} ${p0} ${p1} ${p2} ${p10} ${p11} ${p12} ${p3} ${p4} ${p5} ${p6} ${p7} ${p8} ${p9} ${evdwl} ${ecoul} ${eatom} ${ebond} ${eangle} ${edihed}" file ${loco}/${mdt}_strain_press_evol.dat screen no

#  Setting a Verlet time solution algorithm/integrator
run_style       verlet

#  Loading the same fix 4 as in the init.lammps set of commands.
#fix             4  all shake 0.001 20 1000 m 1.0  # SHAKE to keep bond distances / angles involving H-atoms fixe

#  Setting a global constraint of canonical ensemble on all atoms, the temperature is set constant at 200k
#  with a relaxation time of 100fs
#  > Is this done right, namely sufficiently constrained? Volume is later controlled by the fix deform
#  on all the components of the strain tensor...
#fix             3 all nvt temp 200.0 200.0 100
#fix             3 all langevin 200.0 200.0 100.0 699483
#fix             3 all nvt/sllod temp ${tempt} ${tempt} 100.0
fix             3 all nvt temp ${tempt} ${tempt} 100.0
fix             3 all nvt temp 0.01 ${tempt} 100.0
fix             3 all nvt temp 0.01 0.01 100.0

# Note: these computes are present by default in any input script when using thermo command
#compute thermo_press all temp
#compute thermo_press all pressure thermo_temp

#  Setting a strain constraint every 1 steps in the x-direction on the box at a strain rate of 1e-7 fs-1, position of
#  all atoms positions are remapped following an affine transformation, namely proportional to the box deformation.
##  Is it pertinent to remap the coordinates proportionaly to the applied
##  strains? Should we remap velocities? Or none?
##  This command might be moved to the C++ wrapper file (as well as all the
##  commands that can not be set before, probably just the run command, and
##  maybe timestep for practicality).
#print "${eeps_00} ${eeps_11} ${eeps_22} ${eeps_01} ${eeps_02} ${eeps_12}"
fix             1 all deform 1  x erate ${ceeps_00}                                 y erate ${ceeps_11}                                 z erate ${ceeps_22}                                xy erate ${ceeps_01}                                xz erate ${ceeps_02}                                yz erate ${ceeps_12}                                remap x
fix             1 all deform 1  x erate -7.792244e-06                                 y erate ${ceeps_11}                                 z erate ${ceeps_22}                                xy erate ${ceeps_01}                                xz erate ${ceeps_02}                                yz erate ${ceeps_12}                                remap x
fix             1 all deform 1  x erate -7.792244e-06                                 y erate -5.163935e-06                                 z erate ${ceeps_22}                                xy erate ${ceeps_01}                                xz erate ${ceeps_02}                                yz erate ${ceeps_12}                                remap x
fix             1 all deform 1  x erate -7.792244e-06                                 y erate -5.163935e-06                                 z erate 9.935645e-05                                xy erate ${ceeps_01}                                xz erate ${ceeps_02}                                yz erate ${ceeps_12}                                remap x
fix             1 all deform 1  x erate -7.792244e-06                                 y erate -5.163935e-06                                 z erate 9.935645e-05                                xy erate 2.363372e-07                                xz erate ${ceeps_02}                                yz erate ${ceeps_12}                                remap x
fix             1 all deform 1  x erate -7.792244e-06                                 y erate -5.163935e-06                                 z erate 9.935645e-05                                xy erate 2.363372e-07                                xz erate 2.431442e-06                                yz erate ${ceeps_12}                                remap x
fix             1 all deform 1  x erate -7.792244e-06                                 y erate -5.163935e-06                                 z erate 9.935645e-05                                xy erate 2.363372e-07                                xz erate 2.431442e-06                                yz erate 3.641963e-06                                remap x

#  Setting 2fs timesteps
#timestep        dts #2.0  #(in wrapper)
timestep        ${dts} #2.0
timestep        0.002 

#  Running a molecular dynamics simulation for 2000000 timesteps
#run             nts #2000000  #(in wrapper)
run             ${nts} #2000000
run             61710 
Neighbor list info ...
  1 neighbor list requests
  update every 1 steps, delay 0 steps, check yes
  max neighbors/atom: 2000, page size: 100000
  master list distance cutoff = 5.77118
  ghost atom cutoff = 5.77118
Memory usage per processor = 2.32527 Mbytes
---------------- Step    68214 ----- CPU =      0.0000 (sec) ----------------
Step     =          68214 CPU      = 0 Temp     =   4.1724453e-06 
Press    = -13503.7 PotEng   = -832.293 KinEng   = 1.03012e-07 
E_vdwl   = -832.293 E_coul   = 0 E_pair   = -832.293 
E_bond   = 0 E_angle  = 0 E_dihed  = 0 
Lx       = 10.8619 Ly       = 16.2928 Lz       = 22.0201 
Volume   = 3896.93 Pxx      = -10085.1 Pyy      = -10085.1 
Pzz      = -20341 Pxy      = -1.32971 Pxz      = 0.0535564 
Pyz      = -0.307749 v_eb     = 0 v_ev     = 0 
v_et     = 0 v_ew     = -832.293 v_ep     = 0 
---------------- Step    68500 ----- CPU =      0.0530 (sec) ----------------
Step     =          68500 CPU      = 0.0529828 Temp     =   3.6786958e-06 
Press    = -13552 PotEng   = -832.29 KinEng   = 9.08222e-08 
E_vdwl   = -832.29 E_coul   = 0 E_pair   = -832.29 
E_bond   = 0 E_angle  = 0 E_dihed  = 0 
Lx       = 10.8619 Ly       = 16.2928 Lz       = 22.0214 
Volume   = 3897.12 Pxx      = -10117.4 Pyy      = -10118.5 
Pzz      = -20420 Pxy      = -1.92153 Pxz      = -0.800444 
Pyz      = -1.13617 v_eb     = 0 v_ev     = 0 
v_et     = 0 v_ew     = -832.29 v_ep     = 0 
---------------- Step    69000 ----- CPU =      0.1433 (sec) ----------------
Step     =          69000 CPU      = 0.143344 Temp     =   5.0029047e-06 
Press    = -13636.7 PotEng   = -832.285 KinEng   = 1.23515e-07 
E_vdwl   = -832.285 E_coul   = 0 E_pair   = -832.285 
E_bond   = 0 E_angle  = 0 E_dihed  = 0 
Lx       = 10.8618 Ly       = 16.2927 Lz       = 22.0236 
Volume   = 3897.46 Pxx      = -10174.2 Pyy      = -10177.2 
Pzz      = -20558.6 Pxy      = 1.18256 Pxz      = -2.06974 
Pyz      = -3.70656 v_eb     = 0 v_ev     = 0 
v_et     = 0 v_ew     = -832.285 v_ep     = 0 
---------------- Step    69500 ----- CPU =      0.2341 (sec) ----------------
Step     =          69500 CPU      = 0.234055 Temp     =   5.1876841e-06 
Press    = -13721.3 PotEng   = -832.281 KinEng   = 1.28077e-07 
E_vdwl   = -832.281 E_coul   = 0 E_pair   = -832.281 
E_bond   = 0 E_angle  = 0 E_dihed  = 0 
Lx       = 10.8617 Ly       = 16.2926 Lz       = 22.0257 
Volume   = 3897.79 Pxx      = -10230.9 Pyy      = -10235.9 
Pzz      = -20697.1 Pxy      = -0.184317 Pxz      = -3.59134 
Pyz      = -5.0378 v_eb     = 0 v_ev     = 0 
v_et     = 0 v_ew     = -832.281 v_ep     = 0 
---------------- Step    70000 ----- CPU =      0.3245 (sec) ----------------
Step     =          70000 CPU      = 0.324507 Temp     =   4.2624671e-06 
Press    = -13805.9 PotEng   = -832.276 KinEng   = 1.05235e-07 
E_vdwl   = -832.276 E_coul   = 0 E_pair   = -832.276 
E_bond   = 0 E_angle  = 0 E_dihed  = 0 
Lx       = 10.8616 Ly       = 16.2925 Lz       = 22.0279 
Volume   = 3898.13 Pxx      = -10287.7 Pyy      = -10294.5 
Pzz      = -20835.6 Pxy      = -2.04279 Pxz      = -4.98257 
Pyz      = -7.09076 v_eb     = 0 v_ev     = 0 
v_et     = 0 v_ew     = -832.276 v_ep     = 0 
---------------- Step    70500 ----- CPU =      0.4152 (sec) ----------------
Step     =          70500 CPU      = 0.415218 Temp     =   4.7417471e-06 
Press    = -13890.5 PotEng   = -832.271 KinEng   = 1.17068e-07 
E_vdwl   = -832.271 E_coul   = 0 E_pair   = -832.271 
E_bond   = 0 E_angle  = 0 E_dihed  = 0 
Lx       = 10.8615 Ly       = 16.2925 Lz       = 22.0301 
Volume   = 3898.47 Pxx      = -10344.3 Pyy      = -10353.1 
Pzz      = -20974.2 Pxy      = 1.18073 Pxz      = -6.20855 
Pyz      = -9.89818 v_eb     = 0 v_ev     = 0 
v_et     = 0 v_ew     = -832.271 v_ep     = 0 
---------------- Step    71000 ----- CPU =      0.5066 (sec) ----------------
Step     =          71000 CPU      = 0.506576 Temp     =   5.1159935e-06 
Press    = -13975.1 PotEng   = -832.267 KinEng   = 1.26307e-07 
E_vdwl   = -832.267 E_coul   = 0 E_pair   = -832.267 
E_bond   = 0 E_angle  = 0 E_dihed  = 0 
Lx       = 10.8614 Ly       = 16.2924 Lz       = 22.0323 
Volume   = 3898.8 Pxx      = -10401 Pyy      = -10411.6 
Pzz      = -21112.6 Pxy      = -1.41381 Pxz      = -7.67952 
Pyz      = -11.4512 v_eb     = 0 v_ev     = 0 
v_et     = 0 v_ew     = -832.267 v_ep     = 0 
---------------- Step    71500 ----- CPU =      0.5974 (sec) ----------------
Step     =          71500 CPU      = 0.597451 Temp     =   4.0753784e-06 
Press    = -14059.6 PotEng   = -832.262 KinEng   = 1.00616e-07 
E_vdwl   = -832.262 E_coul   = 0 E_pair   = -832.262 
E_bond   = 0 E_angle  = 0 E_dihed  = 0 
Lx       = 10.8613 Ly       = 16.2923 Lz       = 22.0345 
Volume   = 3899.14 Pxx      = -10457.6 Pyy      = -10470.2 
Pzz      = -21251.1 Pxy      = -1.7855 Pxz      = -9.14384 
Pyz      = -13.136 v_eb     = 0 v_ev     = 0 
v_et     = 0 v_ew     = -832.262 v_ep     = 0 
---------------- Step    72000 ----- CPU =      0.6880 (sec) ----------------
Step     =          72000 CPU      = 0.688006 Temp     =   3.9601298e-06 
Press    = -14144.1 PotEng   = -832.257 KinEng   = 9.77704e-08 
E_vdwl   = -832.257 E_coul   = 0 E_pair   = -832.257 
E_bond   = 0 E_angle  = 0 E_dihed  = 0 
Lx       = 10.8613 Ly       = 16.2922 Lz       = 22.0367 
Volume   = 3899.48 Pxx      = -10514.2 Pyy      = -10528.7 
Pzz      = -21389.5 Pxy      = 0.8414 Pxz      = -10.3651 
Pyz      = -15.9877 v_eb     = 0 v_ev     = 0 
v_et     = 0 v_ew     = -832.257 v_ep     = 0 
---------------- Step    72500 ----- CPU =      0.7784 (sec) ----------------
Step     =          72500 CPU      = 0.778422 Temp     =   5.0045469e-06 
Press    = -14228.6 PotEng   = -832.252 KinEng   = 1.23556e-07 
E_vdwl   = -832.252 E_coul   = 0 E_pair   = -832.252 
E_bond   = 0 E_angle  = 0 E_dihed  = 0 
Lx       = 10.8612 Ly       = 16.2921 Lz       = 22.0389 
Volume   = 3899.81 Pxx      = -10570.8 Pyy      = -10587.2 
Pzz      = -21527.9 Pxy      = -2.61538 Pxz      = -11.7708 
Pyz      = -17.8445 v_eb     = 0 v_ev     = 0 
v_et     = 0 v_ew     = -832.252 v_ep     = 0 
---------------- Step    73000 ----- CPU =      0.8696 (sec) ----------------
Step     =          73000 CPU      = 0.869611 Temp     =   4.1606746e-06 
Press    = -14313.1 PotEng   = -832.247 KinEng   = 1.02722e-07 
E_vdwl   = -832.247 E_coul   = 0 E_pair   = -832.247 
E_bond   = 0 E_angle  = 0 E_dihed  = 0 
Lx       = 10.8611 Ly       = 16.292 Lz       = 22.0411 
Volume   = 3900.15 Pxx      = -10627.3 Pyy      = -10645.6 
Pzz      = -21666.3 Pxy      = -1.15614 Pxz      = -13.285 
Pyz      = -19.2742 v_eb     = 0 v_ev     = 0 
v_et     = 0 v_ew     = -832.247 v_ep     = 0 
---------------- Step    73500 ----- CPU =      0.9602 (sec) ----------------
Step     =          73500 CPU      = 0.960197 Temp     =   4.8513832e-06 
Press    = -14397.5 PotEng   = -832.242 KinEng   = 1.19774e-07 
E_vdwl   = -832.242 E_coul   = 0 E_pair   = -832.242 
E_bond   = 0 E_angle  = 0 E_dihed  = 0 
Lx       = 10.861 Ly       = 16.292 Lz       = 22.0432 
Volume   = 3900.49 Pxx      = -10683.9 Pyy      = -10704 
Pzz      = -21804.6 Pxy      = -0.0780362 Pxz      = -14.5274 
Pyz      = -22.0302 v_eb     = 0 v_ev     = 0 
v_et     = 0 v_ew     = -832.242 v_ep     = 0 
---------------- Step    74000 ----- CPU =      1.0513 (sec) ----------------
Step     =          74000 CPU      = 1.05135 Temp     =   4.2358166e-06 
Press    = -14481.9 PotEng   = -832.237 KinEng   = 1.04577e-07 
E_vdwl   = -832.237 E_coul   = 0 E_pair   = -832.237 
E_bond   = 0 E_angle  = 0 E_dihed  = 0 
Lx       = 10.8609 Ly       = 16.2919 Lz       = 22.0454 
Volume   = 3900.82 Pxx      = -10740.4 Pyy      = -10762.4 
Pzz      = -21943 Pxy      = -3.41204 Pxz      = -15.872 
Pyz      = -24.1842 v_eb     = 0 v_ev     = 0 
v_et     = 0 v_ew     = -832.237 v_ep     = 0 
---------------- Step    74500 ----- CPU =      1.1418 (sec) ----------------
Step     =          74500 CPU      = 1.14178 Temp     =   4.5977671e-06 
Press    = -14566.3 PotEng   = -832.232 KinEng   = 1.13513e-07 
E_vdwl   = -832.232 E_coul   = 0 E_pair   = -832.232 
E_bond   = 0 E_angle  = 0 E_dihed  = 0 
Lx       = 10.8608 Ly       = 16.2918 Lz       = 22.0476 
Volume   = 3901.16 Pxx      = -10796.8 Pyy      = -10820.8 
Pzz      = -22081.3 Pxy      = -0.430924 Pxz      = -17.4115 
Pyz      = -25.4798 v_eb     = 0 v_ev     = 0 
v_et     = 0 v_ew     = -832.232 v_ep     = 0 
---------------- Step    75000 ----- CPU =      1.2333 (sec) ----------------
Step     =          75000 CPU      = 1.23333 Temp     =   4.2302653e-06 
Press    = -14650.6 PotEng   = -832.227 KinEng   = 1.0444e-07 
E_vdwl   = -832.227 E_coul   = 0 E_pair   = -832.227 
E_bond   = 0 E_angle  = 0 E_dihed  = 0 
Lx       = 10.8608 Ly       = 16.2917 Lz       = 22.0498 
Volume   = 3901.5 Pxx      = -10853.2 Pyy      = -10879.1 
Pzz      = -22219.5 Pxy      = -1.61941 Pxz      = -18.6864 
Pyz      = -28.0685 v_eb     = 0 v_ev     = 0 
v_et     = 0 v_ew     = -832.227 v_ep     = 0 
---------------- Step    75500 ----- CPU =      1.3275 (sec) ----------------
Step     =          75500 CPU      = 1.32749 Temp     =   4.3198792e-06 
Press    = -14735 PotEng   = -832.222 KinEng   = 1.06652e-07 
E_vdwl   = -832.222 E_coul   = 0 E_pair   = -832.222 
E_bond   = 0 E_angle  = 0 E_dihed  = 0 
Lx       = 10.8607 Ly       = 16.2916 Lz       = 22.052 
Volume   = 3901.83 Pxx      = -10909.7 Pyy      = -10937.4 
Pzz      = -22357.8 Pxy      = -3.39779 Pxz      = -19.9842 
Pyz      = -30.4658 v_eb     = 0 v_ev     = 0 
v_et     = 0 v_ew     = -832.222 v_ep     = 0 
---------------- Step    76000 ----- CPU =      1.4186 (sec) ----------------
Step     =          76000 CPU      = 1.41859 Temp     =   4.0614977e-06 
Press    = -14819.2 PotEng   = -832.217 KinEng   = 1.00273e-07 
E_vdwl   = -832.217 E_coul   = 0 E_pair   = -832.217 
E_bond   = 0 E_angle  = 0 E_dihed  = 0 
Lx       = 10.8606 Ly       = 16.2915 Lz       = 22.0542 
Volume   = 3902.17 Pxx      = -10966 Pyy      = -10995.7 
Pzz      = -22496 Pxy      = -0.189009 Pxz      = -21.5295 
Pyz      = -31.7196 v_eb     = 0 v_ev     = 0 
v_et     = 0 v_ew     = -832.217 v_ep     = 0 
---------------- Step    76500 ----- CPU =      1.5093 (sec) ----------------
Step     =          76500 CPU      = 1.50931 Temp     =    5.642547e-06 
Press    = -14903.5 PotEng   = -832.212 KinEng   = 1.39307e-07 
E_vdwl   = -832.212 E_coul   = 0 E_pair   = -832.212 
E_bond   = 0 E_angle  = 0 E_dihed  = 0 
Lx       = 10.8605 Ly       = 16.2915 Lz       = 22.0564 
Volume   = 3902.51 Pxx      = -11022.4 Pyy      = -11053.9 
Pzz      = -22634.2 Pxy      = -3.37723 Pxz      = -22.8379 
Pyz      = -34.1275 v_eb     = 0 v_ev     = 0 
v_et     = 0 v_ew     = -832.212 v_ep     = 0 
---------------- Step    77000 ----- CPU =      1.6006 (sec) ----------------
Step     =          77000 CPU      = 1.60063 Temp     =   5.8551256e-06 
Press    = -14987.7 PotEng   = -832.207 KinEng   = 1.44555e-07 
E_vdwl   = -832.207 E_coul   = 0 E_pair   = -832.207 
E_bond   = 0 E_angle  = 0 E_dihed  = 0 
Lx       = 10.8604 Ly       = 16.2914 Lz       = 22.0586 
Volume   = 3902.84 Pxx      = -11078.7 Pyy      = -11112.2 
Pzz      = -22772.4 Pxy      = -2.50022 Pxz      = -24.1056 
Pyz      = -36.7009 v_eb     = 0 v_ev     = 0 
v_et     = 0 v_ew     = -832.207 v_ep     = 0 
---------------- Step    77500 ----- CPU =      1.6914 (sec) ----------------
Step     =          77500 CPU      = 1.69144 Temp     =   3.8049046e-06 
Press    = -15072 PotEng   = -832.202 KinEng   = 9.39381e-08 
E_vdwl   = -832.202 E_coul   = 0 E_pair   = -832.202 
E_bond   = 0 E_angle  = 0 E_dihed  = 0 
Lx       = 10.8603 Ly       = 16.2913 Lz       = 22.0607 
Volume   = 3903.18 Pxx      = -11135 Pyy      = -11170.3 
Pzz      = -22910.5 Pxy      = -1.03763 Pxz      = -25.6431 
Pyz      = -37.965 v_eb     = 0 v_ev     = 0 
v_et     = 0 v_ew     = -832.202 v_ep     = 0 
---------------- Step    78000 ----- CPU =      1.7820 (sec) ----------------
Step     =          78000 CPU      = 1.78199 Temp     =   5.2705102e-06 
Press    = -15156.1 PotEng   = -832.197 KinEng   = 1.30122e-07 
E_vdwl   = -832.197 E_coul   = 0 E_pair   = -832.197 
E_bond   = 0 E_angle  = 0 E_dihed  = 0 
Lx       = 10.8602 Ly       = 16.2912 Lz       = 22.0629 
Volume   = 3903.52 Pxx      = -11191.3 Pyy      = -11228.5 
Pzz      = -23048.6 Pxy      = -4.47982 Pxz      = -26.9817 
Pyz      = -40.2174 v_eb     = 0 v_ev     = 0 
v_et     = 0 v_ew     = -832.197 v_ep     = 0 
---------------- Step    78500 ----- CPU =      1.8735 (sec) ----------------
Step     =          78500 CPU      = 1.87348 Temp     =   4.7144775e-06 
Press    = -15240.3 PotEng   = -832.191 KinEng   = 1.16394e-07 
E_vdwl   = -832.191 E_coul   = 0 E_pair   = -832.191 
E_bond   = 0 E_angle  = 0 E_dihed  = 0 
Lx       = 10.8602 Ly       = 16.2911 Lz       = 22.0651 
Volume   = 3903.85 Pxx      = -11247.5 Pyy      = -11286.6 
Pzz      = -23186.7 Pxy      = -1.37103 Pxz      = -28.2318 
Pyz      = -42.9051 v_eb     = 0 v_ev     = 0 
v_et     = 0 v_ew     = -832.191 v_ep     = 0 
---------------- Step    79000 ----- CPU =      1.9643 (sec) ----------------
Step     =          79000 CPU      = 1.9643 Temp     =   4.6417096e-06 
Press    = -15324.4 PotEng   = -832.186 KinEng   = 1.14598e-07 
E_vdwl   = -832.186 E_coul   = 0 E_pair   = -832.186 
E_bond   = 0 E_angle  = 0 E_dihed  = 0 
Lx       = 10.8601 Ly       = 16.291 Lz       = 22.0673 
Volume   = 3904.19 Pxx      = -11303.7 Pyy      = -11344.7 
Pzz      = -23324.8 Pxy      = -2.98241 Pxz      = -29.7553 
Pyz      = -44.197 v_eb     = 0 v_ev     = 0 
v_et     = 0 v_ew     = -832.186 v_ep     = 0 
---------------- Step    79500 ----- CPU =      2.0557 (sec) ----------------
Step     =          79500 CPU      = 2.05568 Temp     =   5.6153573e-06 
Press    = -15408.5 PotEng   = -832.181 KinEng   = 1.38636e-07 
E_vdwl   = -832.181 E_coul   = 0 E_pair   = -832.181 
E_bond   = 0 E_angle  = 0 E_dihed  = 0 
Lx       = 10.86 Ly       = 16.291 Lz       = 22.0695 
Volume   = 3904.53 Pxx      = -11359.9 Pyy      = -11402.8 
Pzz      = -23462.9 Pxy      = -4.14182 Pxz      = -31.12 
Pyz      = -46.3397 v_eb     = 0 v_ev     = 0 
v_et     = 0 v_ew     = -832.181 v_ep     = 0 
---------------- Step    80000 ----- CPU =      2.1462 (sec) ----------------
Step     =          80000 CPU      = 2.14623 Temp     =   4.6681061e-06 
Press    = -15492.6 PotEng   = -832.175 KinEng   = 1.15249e-07 
E_vdwl   = -832.175 E_coul   = 0 E_pair   = -832.175 
E_bond   = 0 E_angle  = 0 E_dihed  = 0 
Lx       = 10.8599 Ly       = 16.2909 Lz       = 22.0717 
Volume   = 3904.86 Pxx      = -11416 Pyy      = -11460.9 
Pzz      = -23600.9 Pxy      = -1.26605 Pxz      = -32.3573 
Pyz      = -49.0913 v_eb     = 0 v_ev     = 0 
v_et     = 0 v_ew     = -832.175 v_ep     = 0 
---------------- Step    80500 ----- CPU =      2.2365 (sec) ----------------
Step     =          80500 CPU      = 2.23653 Temp     =   4.3086608e-06 
Press    = -15576.6 PotEng   = -832.17 KinEng   = 1.06375e-07 
E_vdwl   = -832.17 E_coul   = 0 E_pair   = -832.17 
E_bond   = 0 E_angle  = 0 E_dihed  = 0 
Lx       = 10.8598 Ly       = 16.2908 Lz       = 22.0739 
Volume   = 3905.2 Pxx      = -11472.2 Pyy      = -11518.9 
Pzz      = -23738.9 Pxy      = -4.92097 Pxz      = -33.8702 
Pyz      = -50.4058 v_eb     = 0 v_ev     = 0 
v_et     = 0 v_ew     = -832.17 v_ep     = 0 
---------------- Step    81000 ----- CPU =      2.3273 (sec) ----------------
Step     =          81000 CPU      = 2.32734 Temp     =   4.6660021e-06 
Press    = -15660.6 PotEng   = -832.165 KinEng   = 1.15197e-07 
E_vdwl   = -832.165 E_coul   = 0 E_pair   = -832.165 
E_bond   = 0 E_angle  = 0 E_dihed  = 0 
Lx       = 10.8597 Ly       = 16.2907 Lz       = 22.0761 
Volume   = 3905.53 Pxx      = -11528.3 Pyy      = -11576.9 
Pzz      = -23876.8 Pxy      = -2.67914 Pxz      = -35.2535 
Pyz      = -52.4917 v_eb     = 0 v_ev     = 0 
v_et     = 0 v_ew     = -832.165 v_ep     = 0 
---------------- Step    81500 ----- CPU =      2.4186 (sec) ----------------
Step     =          81500 CPU      = 2.41865 Temp     =   5.1584959e-06 
Press    = -15744.6 PotEng   = -832.159 KinEng   = 1.27356e-07 
E_vdwl   = -832.159 E_coul   = 0 E_pair   = -832.159 
E_bond   = 0 E_angle  = 0 E_dihed  = 0 
Lx       = 10.8597 Ly       = 16.2906 Lz       = 22.0782 
Volume   = 3905.87 Pxx      = -11584.3 Pyy      = -11634.8 
Pzz      = -24014.8 Pxy      = -2.95639 Pxz      = -36.4778 
Pyz      = -55.2677 v_eb     = 0 v_ev     = 0 
v_et     = 0 v_ew     = -832.159 v_ep     = 0 
---------------- Step    82000 ----- CPU =      2.5098 (sec) ----------------
Step     =          82000 CPU      = 2.50984 Temp     =   4.7773802e-06 
Press    = -15828.6 PotEng   = -832.154 KinEng   = 1.17947e-07 
E_vdwl   = -832.154 E_coul   = 0 E_pair   = -832.154 
E_bond   = 0 E_angle  = 0 E_dihed  = 0 
Lx       = 10.8596 Ly       = 16.2905 Lz       = 22.0804 
Volume   = 3906.21 Pxx      = -11640.4 Pyy      = -11692.8 
Pzz      = -24152.7 Pxy      = -5.22359 Pxz      = -37.9925 
Pyz      = -56.5892 v_eb     = 0 v_ev     = 0 
v_et     = 0 v_ew     = -832.154 v_ep     = 0 
---------------- Step    82500 ----- CPU =      2.6007 (sec) ----------------
Step     =          82500 CPU      = 2.60071 Temp     =     5.14139e-06 
Press    = -15912.5 PotEng   = -832.148 KinEng   = 1.26934e-07 
E_vdwl   = -832.148 E_coul   = 0 E_pair   = -832.148 
E_bond   = 0 E_angle  = 0 E_dihed  = 0 
Lx       = 10.8595 Ly       = 16.2904 Lz       = 22.0826 
Volume   = 3906.54 Pxx      = -11696.4 Pyy      = -11750.7 
Pzz      = -24290.6 Pxy      = -1.88357 Pxz      = -39.3787 
Pyz      = -58.6684 v_eb     = 0 v_ev     = 0 
v_et     = 0 v_ew     = -832.148 v_ep     = 0 
---------------- Step    83000 ----- CPU =      2.6915 (sec) ----------------
Step     =          83000 CPU      = 2.69149 Temp     =   4.7974118e-06 
Press    = -15996.4 PotEng   = -832.143 KinEng   = 1.18442e-07 
E_vdwl   = -832.143 E_coul   = 0 E_pair   = -832.143 
E_bond   = 0 E_angle  = 0 E_dihed  = 0 
Lx       = 10.8594 Ly       = 16.2904 Lz       = 22.0848 
Volume   = 3906.88 Pxx      = -11752.4 Pyy      = -11808.5 
Pzz      = -24428.4 Pxy      = -5.35199 Pxz      = -40.5946 
Pyz      = -61.4395 v_eb     = 0 v_ev     = 0 
v_et     = 0 v_ew     = -832.143 v_ep     = 0 
---------------- Step    83500 ----- CPU =      2.7820 (sec) ----------------
Step     =          83500 CPU      = 2.78198 Temp     =   4.6762143e-06 
Press    = -16080.3 PotEng   = -832.137 KinEng   = 1.1545e-07 
E_vdwl   = -832.137 E_coul   = 0 E_pair   = -832.137 
E_bond   = 0 E_angle  = 0 E_dihed  = 0 
Lx       = 10.8593 Ly       = 16.2903 Lz       = 22.087 
Volume   = 3907.22 Pxx      = -11808.3 Pyy      = -11866.4 
Pzz      = -24566.3 Pxy      = -3.65153 Pxz      = -42.1237 
Pyz      = -62.7466 v_eb     = 0 v_ev     = 0 
v_et     = 0 v_ew     = -832.137 v_ep     = 0 
---------------- Step    84000 ----- CPU =      2.8730 (sec) ----------------
Step     =          84000 CPU      = 2.87303 Temp     =   5.0086117e-06 
Press    = -16164.2 PotEng   = -832.132 KinEng   = 1.23656e-07 
E_vdwl   = -832.132 E_coul   = 0 E_pair   = -832.132 
E_bond   = 0 E_angle  = 0 E_dihed  = 0 
Lx       = 10.8592 Ly       = 16.2902 Lz       = 22.0892 
Volume   = 3907.55 Pxx      = -11864.3 Pyy      = -11924.2 
Pzz      = -24704.1 Pxy      = -3.39579 Pxz      = -43.4907 
Pyz      = -64.8671 v_eb     = 0 v_ev     = 0 
v_et     = 0 v_ew     = -832.132 v_ep     = 0 
---------------- Step    84500 ----- CPU =      2.9637 (sec) ----------------
Step     =          84500 CPU      = 2.9637 Temp     =    4.689558e-06 
Press    = -16248 PotEng   = -832.126 KinEng   = 1.15779e-07 
E_vdwl   = -832.126 E_coul   = 0 E_pair   = -832.126 
E_bond   = 0 E_angle  = 0 E_dihed  = 0 
Lx       = 10.8591 Ly       = 16.2901 Lz       = 22.0914 
Volume   = 3907.89 Pxx      = -11920.2 Pyy      = -11982 
Pzz      = -24841.9 Pxy      = -5.96955 Pxz      = -44.7149 
Pyz      = -67.6087 v_eb     = 0 v_ev     = 0 
v_et     = 0 v_ew     = -832.126 v_ep     = 0 
---------------- Step    85000 ----- CPU =      3.0551 (sec) ----------------
Step     =          85000 CPU      = 3.05516 Temp     =   4.9966722e-06 
Press    = -16331.8 PotEng   = -832.12 KinEng   = 1.23361e-07 
E_vdwl   = -832.12 E_coul   = 0 E_pair   = -832.12 
E_bond   = 0 E_angle  = 0 E_dihed  = 0 
Lx       = 10.8591 Ly       = 16.29 Lz       = 22.0936 
Volume   = 3908.23 Pxx      = -11976 Pyy      = -12039.7 
Pzz      = -24979.6 Pxy      = -2.54054 Pxz      = -46.2577 
Pyz      = -68.8764 v_eb     = 0 v_ev     = 0 
v_et     = 0 v_ew     = -832.12 v_ep     = 0 
---------------- Step    85500 ----- CPU =      3.1477 (sec) ----------------
Step     =          85500 CPU      = 3.14768 Temp     =   5.4361759e-06 
Press    = -16415.6 PotEng   = -832.115 KinEng   = 1.34212e-07 
E_vdwl   = -832.115 E_coul   = 0 E_pair   = -832.115 
E_bond   = 0 E_angle  = 0 E_dihed  = 0 
Lx       = 10.859 Ly       = 16.2899 Lz       = 22.0958 
Volume   = 3908.56 Pxx      = -12031.9 Pyy      = -12097.5 
Pzz      = -25117.4 Pxy      = -6.04996 Pxz      = -47.5914 
Pyz      = -71.0922 v_eb     = 0 v_ev     = 0 
v_et     = 0 v_ew     = -832.115 v_ep     = 0 
---------------- Step    86000 ----- CPU =      3.2459 (sec) ----------------
Step     =          86000 CPU      = 3.24594 Temp     =   5.3319336e-06 
Press    = -16499.3 PotEng   = -832.109 KinEng   = 1.31638e-07 
E_vdwl   = -832.109 E_coul   = 0 E_pair   = -832.109 
E_bond   = 0 E_angle  = 0 E_dihed  = 0 
Lx       = 10.8589 Ly       = 16.2899 Lz       = 22.0979 
Volume   = 3908.9 Pxx      = -12087.7 Pyy      = -12155.2 
Pzz      = -25255.1 Pxy      = -4.17785 Pxz      = -48.843 
Pyz      = -73.7687 v_eb     = 0 v_ev     = 0 
v_et     = 0 v_ew     = -832.109 v_ep     = 0 
---------------- Step    86500 ----- CPU =      3.3365 (sec) ----------------
Step     =          86500 CPU      = 3.33651 Temp     =   4.1636558e-06 
Press    = -16583 PotEng   = -832.103 KinEng   = 1.02795e-07 
E_vdwl   = -832.103 E_coul   = 0 E_pair   = -832.103 
E_bond   = 0 E_angle  = 0 E_dihed  = 0 
Lx       = 10.8588 Ly       = 16.2898 Lz       = 22.1001 
Volume   = 3909.24 Pxx      = -12143.5 Pyy      = -12212.8 
Pzz      = -25392.8 Pxy      = -4.27225 Pxz      = -50.3855 
Pyz      = -74.9806 v_eb     = 0 v_ev     = 0 
v_et     = 0 v_ew     = -832.103 v_ep     = 0 
---------------- Step    87000 ----- CPU =      3.4281 (sec) ----------------
Step     =          87000 CPU      = 3.42815 Temp     =   5.3218917e-06 
Press    = -16666.7 PotEng   = -832.098 KinEng   = 1.31391e-07 
E_vdwl   = -832.098 E_coul   = 0 E_pair   = -832.098 
E_bond   = 0 E_angle  = 0 E_dihed  = 0 
Lx       = 10.8587 Ly       = 16.2897 Lz       = 22.1023 
Volume   = 3909.57 Pxx      = -12199.3 Pyy      = -12270.5 
Pzz      = -25530.4 Pxy      = -6.452 Pxz      = -51.6899 
Pyz      = -77.3537 v_eb     = 0 v_ev     = 0 
v_et     = 0 v_ew     = -832.098 v_ep     = 0 
---------------- Step    87500 ----- CPU =      3.5189 (sec) ----------------
Step     =          87500 CPU      = 3.51888 Temp     =   4.5439806e-06 
Press    = -16750.4 PotEng   = -832.092 KinEng   = 1.12185e-07 
E_vdwl   = -832.092 E_coul   = 0 E_pair   = -832.092 
E_bond   = 0 E_angle  = 0 E_dihed  = 0 
Lx       = 10.8586 Ly       = 16.2896 Lz       = 22.1045 
Volume   = 3909.91 Pxx      = -12255 Pyy      = -12328.1 
Pzz      = -25668 Pxy      = -3.20323 Pxz      = -52.9726 
Pyz      = -79.8993 v_eb     = 0 v_ev     = 0 
v_et     = 0 v_ew     = -832.092 v_ep     = 0 
---------------- Step    88000 ----- CPU =      3.6099 (sec) ----------------
Step     =          88000 CPU      = 3.60986 Temp     =     5.22635e-06 
Press    = -16834 PotEng   = -832.086 KinEng   = 1.29032e-07 
E_vdwl   = -832.086 E_coul   = 0 E_pair   = -832.086 
E_bond   = 0 E_angle  = 0 E_dihed  = 0 
Lx       = 10.8586 Ly       = 16.2895 Lz       = 22.1067 
Volume   = 3910.24 Pxx      = -12310.7 Pyy      = -12385.7 
Pzz      = -25805.7 Pxy      = -6.99232 Pxz      = -54.5093 
Pyz      = -81.0761 v_eb     = 0 v_ev     = 0 
v_et     = 0 v_ew     = -832.086 v_ep     = 0 
---------------- Step    88500 ----- CPU =      3.7005 (sec) ----------------
Step     =          88500 CPU      = 3.70049 Temp     =   6.1519686e-06 
Press    = -16917.6 PotEng   = -832.08 KinEng   = 1.51884e-07 
E_vdwl   = -832.08 E_coul   = 0 E_pair   = -832.08 
E_bond   = 0 E_angle  = 0 E_dihed  = 0 
Lx       = 10.8585 Ly       = 16.2894 Lz       = 22.1089 
Volume   = 3910.58 Pxx      = -12366.4 Pyy      = -12443.2 
Pzz      = -25943.2 Pxy      = -4.28688 Pxz      = -55.788 
Pyz      = -83.6525 v_eb     = 0 v_ev     = 0 
v_et     = 0 v_ew     = -832.08 v_ep     = 0 
---------------- Step    89000 ----- CPU =      3.7917 (sec) ----------------
Step     =          89000 CPU      = 3.79173 Temp     =   4.9613546e-06 
Press    = -17001.2 PotEng   = -832.074 KinEng   = 1.22489e-07 
E_vdwl   = -832.074 E_coul   = 0 E_pair   = -832.074 
E_bond   = 0 E_angle  = 0 E_dihed  = 0 
Lx       = 10.8584 Ly       = 16.2894 Lz       = 22.1111 
Volume   = 3910.92 Pxx      = -12422.1 Pyy      = -12500.8 
Pzz      = -26080.8 Pxy      = -5.63043 Pxz      = -57.0987 
Pyz      = -85.9778 v_eb     = 0 v_ev     = 0 
v_et     = 0 v_ew     = -832.074 v_ep     = 0 
---------------- Step    89500 ----- CPU =      3.8824 (sec) ----------------
Step     =          89500 CPU      = 3.8824 Temp     =   4.9703876e-06 
Press    = -17084.8 PotEng   = -832.068 KinEng   = 1.22712e-07 
E_vdwl   = -832.068 E_coul   = 0 E_pair   = -832.068 
E_bond   = 0 E_angle  = 0 E_dihed  = 0 
Lx       = 10.8583 Ly       = 16.2893 Lz       = 22.1133 
Volume   = 3911.25 Pxx      = -12477.7 Pyy      = -12558.3 
Pzz      = -26218.3 Pxy      = -6.49618 Pxz      = -58.6379 
Pyz      = -87.1951 v_eb     = 0 v_ev     = 0 
v_et     = 0 v_ew     = -832.068 v_ep     = 0 
---------------- Step    90000 ----- CPU =      3.9738 (sec) ----------------
Step     =          90000 CPU      = 3.97383 Temp     =   4.7924509e-06 
Press    = -17168.3 PotEng   = -832.062 KinEng   = 1.18319e-07 
E_vdwl   = -832.062 E_coul   = 0 E_pair   = -832.062 
E_bond   = 0 E_angle  = 0 E_dihed  = 0 
Lx       = 10.8582 Ly       = 16.2892 Lz       = 22.1154 
Volume   = 3911.59 Pxx      = -12533.3 Pyy      = -12615.8 
Pzz      = -26355.8 Pxy      = -4.17151 Pxz      = -59.873 
Pyz      = -89.969 v_eb     = 0 v_ev     = 0 
v_et     = 0 v_ew     = -832.062 v_ep     = 0 
---------------- Step    90500 ----- CPU =      4.0654 (sec) ----------------
Step     =          90500 CPU      = 4.0654 Temp     =   5.1332762e-06 
Press    = -17251.8 PotEng   = -832.056 KinEng   = 1.26734e-07 
E_vdwl   = -832.056 E_coul   = 0 E_pair   = -832.056 
E_bond   = 0 E_angle  = 0 E_dihed  = 0 
Lx       = 10.8581 Ly       = 16.2891 Lz       = 22.1176 
Volume   = 3911.93 Pxx      = -12588.9 Pyy      = -12673.2 
Pzz      = -26493.3 Pxy      = -7.82808 Pxz      = -61.2357 
Pyz      = -91.9973 v_eb     = 0 v_ev     = 0 
v_et     = 0 v_ew     = -832.056 v_ep     = 0 
---------------- Step    91000 ----- CPU =      4.1598 (sec) ----------------
Step     =          91000 CPU      = 4.15979 Temp     =   4.8718198e-06 
Press    = -17335.3 PotEng   = -832.05 KinEng   = 1.20279e-07 
E_vdwl   = -832.05 E_coul   = 0 E_pair   = -832.05 
E_bond   = 0 E_angle  = 0 E_dihed  = 0 
Lx       = 10.858 Ly       = 16.289 Lz       = 22.1198 
Volume   = 3912.26 Pxx      = -12644.4 Pyy      = -12730.6 
Pzz      = -26630.7 Pxy      = -4.26102 Pxz      = -62.7602 
Pyz      = -93.3664 v_eb     = 0 v_ev     = 0 
v_et     = 0 v_ew     = -832.05 v_ep     = 0 
---------------- Step    91500 ----- CPU =      4.2508 (sec) ----------------
Step     =          91500 CPU      = 4.25084 Temp     =   4.5314408e-06 
Press    = -17418.7 PotEng   = -832.044 KinEng   = 1.11875e-07 
E_vdwl   = -832.044 E_coul   = 0 E_pair   = -832.044 
E_bond   = 0 E_angle  = 0 E_dihed  = 0 
Lx       = 10.858 Ly       = 16.2889 Lz       = 22.122 
Volume   = 3912.6 Pxx      = -12699.9 Pyy      = -12788 
Pzz      = -26768.2 Pxy      = -7.37967 Pxz      = -63.9453 
Pyz      = -96.2733 v_eb     = 0 v_ev     = 0 
v_et     = 0 v_ew     = -832.044 v_ep     = 0 
---------------- Step    92000 ----- CPU =      4.3413 (sec) ----------------
Step     =          92000 CPU      = 4.34127 Temp     =   5.6263415e-06 
Press    = -17502.1 PotEng   = -832.038 KinEng   = 1.38907e-07 
E_vdwl   = -832.038 E_coul   = 0 E_pair   = -832.038 
E_bond   = 0 E_angle  = 0 E_dihed  = 0 
Lx       = 10.8579 Ly       = 16.2888 Lz       = 22.1242 
Volume   = 3912.93 Pxx      = -12755.4 Pyy      = -12845.4 
Pzz      = -26905.6 Pxy      = -5.9172 Pxz      = -65.3979 
Pyz      = -97.966 v_eb     = 0 v_ev     = 0 
v_et     = 0 v_ew     = -832.038 v_ep     = 0 
---------------- Step    92500 ----- CPU =      4.4320 (sec) ----------------
Step     =          92500 CPU      = 4.43196 Temp     =   5.1580947e-06 
Press    = -17585.5 PotEng   = -832.032 KinEng   = 1.27347e-07 
E_vdwl   = -832.032 E_coul   = 0 E_pair   = -832.032 
E_bond   = 0 E_angle  = 0 E_dihed  = 0 
Lx       = 10.8578 Ly       = 16.2888 Lz       = 22.1264 
Volume   = 3913.27 Pxx      = -12810.9 Pyy      = -12902.7 
Pzz      = -27042.9 Pxy      = -5.92128 Pxz      = -66.8493 
Pyz      = -99.6101 v_eb     = 0 v_ev     = 0 
v_et     = 0 v_ew     = -832.032 v_ep     = 0 
---------------- Step    93000 ----- CPU =      4.5233 (sec) ----------------
Step     =          93000 CPU      = 4.52335 Temp     =   4.9404411e-06 
Press    = -17668.9 PotEng   = -832.026 KinEng   = 1.21973e-07 
E_vdwl   = -832.026 E_coul   = 0 E_pair   = -832.026 
E_bond   = 0 E_angle  = 0 E_dihed  = 0 
Lx       = 10.8577 Ly       = 16.2887 Lz       = 22.1286 
Volume   = 3913.61 Pxx      = -12866.3 Pyy      = -12960 
Pzz      = -27180.3 Pxy      = -7.85132 Pxz      = -68.0365 
Pyz      = -102.534 v_eb     = 0 v_ev     = 0 
v_et     = 0 v_ew     = -832.026 v_ep     = 0 
---------------- Step    93500 ----- CPU =      4.6146 (sec) ----------------
Step     =          93500 CPU      = 4.6146 Temp     =   4.2337362e-06 
Press    = -17752.2 PotEng   = -832.02 KinEng   = 1.04525e-07 
E_vdwl   = -832.02 E_coul   = 0 E_pair   = -832.02 
E_bond   = 0 E_angle  = 0 E_dihed  = 0 
Lx       = 10.8576 Ly       = 16.2886 Lz       = 22.1308 
Volume   = 3913.94 Pxx      = -12921.7 Pyy      = -13017.3 
Pzz      = -27317.6 Pxy      = -4.91034 Pxz      = -69.5618 
Pyz      = -103.897 v_eb     = 0 v_ev     = 0 
v_et     = 0 v_ew     = -832.02 v_ep     = 0 
---------------- Step    94000 ----- CPU =      4.7059 (sec) ----------------
Step     =          94000 CPU      = 4.70591 Temp     =   4.4217981e-06 
Press    = -17835.5 PotEng   = -832.014 KinEng   = 1.09168e-07 
E_vdwl   = -832.014 E_coul   = 0 E_pair   = -832.014 
E_bond   = 0 E_angle  = 0 E_dihed  = 0 
Lx       = 10.8575 Ly       = 16.2885 Lz       = 22.1329 
Volume   = 3914.28 Pxx      = -12977.1 Pyy      = -13074.5 
Pzz      = -27454.9 Pxy      = -8.77152 Pxz      = -70.9107 
Pyz      = -105.951 v_eb     = 0 v_ev     = 0 
v_et     = 0 v_ew     = -832.014 v_ep     = 0 
---------------- Step    94500 ----- CPU =      4.7970 (sec) ----------------
Step     =          94500 CPU      = 4.79696 Temp     =   4.8576731e-06 
Press    = -17918.8 PotEng   = -832.007 KinEng   = 1.1993e-07 
E_vdwl   = -832.007 E_coul   = 0 E_pair   = -832.007 
E_bond   = 0 E_angle  = 0 E_dihed  = 0 
Lx       = 10.8574 Ly       = 16.2884 Lz       = 22.1351 
Volume   = 3914.62 Pxx      = -13032.4 Pyy      = -13131.7 
Pzz      = -27592.2 Pxy      = -5.22678 Pxz      = -72.1606 
Pyz      = -108.693 v_eb     = 0 v_ev     = 0 
v_et     = 0 v_ew     = -832.007 v_ep     = 0 
---------------- Step    95000 ----- CPU =      4.8875 (sec) ----------------
Step     =          95000 CPU      = 4.88752 Temp     =   5.2417618e-06 
Press    = -18002 PotEng   = -832.001 KinEng   = 1.29412e-07 
E_vdwl   = -832.001 E_coul   = 0 E_pair   = -832.001 
E_bond   = 0 E_angle  = 0 E_dihed  = 0 
Lx       = 10.8574 Ly       = 16.2883 Lz       = 22.1373 
Volume   = 3914.95 Pxx      = -13087.8 Pyy      = -13188.9 
Pzz      = -27729.4 Pxy      = -8.33095 Pxz      = -73.7002 
Pyz      = -109.844 v_eb     = 0 v_ev     = 0 
v_et     = 0 v_ew     = -832.001 v_ep     = 0 
---------------- Step    95500 ----- CPU =      4.9802 (sec) ----------------
Step     =          95500 CPU      = 4.9802 Temp     =   5.8974928e-06 
Press    = -18085.3 PotEng   = -831.995 KinEng   = 1.45601e-07 
E_vdwl   = -831.995 E_coul   = 0 E_pair   = -831.995 
E_bond   = 0 E_angle  = 0 E_dihed  = 0 
Lx       = 10.8573 Ly       = 16.2883 Lz       = 22.1395 
Volume   = 3915.29 Pxx      = -13143.1 Pyy      = -13246.1 
Pzz      = -27866.6 Pxy      = -6.68953 Pxz      = -74.9731 
Pyz      = -112.386 v_eb     = 0 v_ev     = 0 
v_et     = 0 v_ew     = -831.995 v_ep     = 0 
---------------- Step    96000 ----- CPU =      5.0718 (sec) ----------------
Step     =          96000 CPU      = 5.07181 Temp     =   5.4847913e-06 
Press    = -18168.5 PotEng   = -831.988 KinEng   = 1.35412e-07 
E_vdwl   = -831.988 E_coul   = 0 E_pair   = -831.988 
E_bond   = 0 E_angle  = 0 E_dihed  = 0 
Lx       = 10.8572 Ly       = 16.2882 Lz       = 22.1417 
Volume   = 3915.62 Pxx      = -13198.3 Pyy      = -13303.2 
Pzz      = -28003.8 Pxy      = -7.13336 Pxz      = -76.297 
Pyz      = -114.687 v_eb     = 0 v_ev     = 0 
v_et     = 0 v_ew     = -831.988 v_ep     = 0 
---------------- Step    96500 ----- CPU =      5.1626 (sec) ----------------
Step     =          96500 CPU      = 5.16261 Temp     =   4.8677725e-06 
Press    = -18251.6 PotEng   = -831.982 KinEng   = 1.20179e-07 
E_vdwl   = -831.982 E_coul   = 0 E_pair   = -831.982 
E_bond   = 0 E_angle  = 0 E_dihed  = 0 
Lx       = 10.8571 Ly       = 16.2881 Lz       = 22.1439 
Volume   = 3915.96 Pxx      = -13253.6 Pyy      = -13360.3 
Pzz      = -28141 Pxy      = -8.43664 Pxz      = -77.8242 
Pyz      = -115.916 v_eb     = 0 v_ev     = 0 
v_et     = 0 v_ew     = -831.982 v_ep     = 0 
---------------- Step    97000 ----- CPU =      5.2532 (sec) ----------------
Step     =          97000 CPU      = 5.25325 Temp     =   4.5640849e-06 
Press    = -18334.8 PotEng   = -831.976 KinEng   = 1.12681e-07 
E_vdwl   = -831.976 E_coul   = 0 E_pair   = -831.976 
E_bond   = 0 E_angle  = 0 E_dihed  = 0 
Lx       = 10.857 Ly       = 16.288 Lz       = 22.1461 
Volume   = 3916.3 Pxx      = -13308.8 Pyy      = -13417.4 
Pzz      = -28278.1 Pxy      = -6.11809 Pxz      = -79.0287 
Pyz      = -118.818 v_eb     = 0 v_ev     = 0 
v_et     = 0 v_ew     = -831.976 v_ep     = 0 
---------------- Step    97500 ----- CPU =      5.3444 (sec) ----------------
Step     =          97500 CPU      = 5.34438 Temp     =   5.5380277e-06 
Press    = -18417.9 PotEng   = -831.969 KinEng   = 1.36727e-07 
E_vdwl   = -831.969 E_coul   = 0 E_pair   = -831.969 
E_bond   = 0 E_angle  = 0 E_dihed  = 0 
Lx       = 10.8569 Ly       = 16.2879 Lz       = 22.1483 
Volume   = 3916.63 Pxx      = -13364 Pyy      = -13474.5 
Pzz      = -28415.3 Pxy      = -9.61289 Pxz      = -80.4578 
Pyz      = -120.536 v_eb     = 0 v_ev     = 0 
v_et     = 0 v_ew     = -831.969 v_ep     = 0 
---------------- Step    98000 ----- CPU =      5.4372 (sec) ----------------
Step     =          98000 CPU      = 5.43723 Temp     =   5.2680302e-06 
Press    = -18501 PotEng   = -831.963 KinEng   = 1.30061e-07 
E_vdwl   = -831.963 E_coul   = 0 E_pair   = -831.963 
E_bond   = 0 E_angle  = 0 E_dihed  = 0 
Lx       = 10.8569 Ly       = 16.2878 Lz       = 22.1504 
Volume   = 3916.97 Pxx      = -13419.1 Pyy      = -13531.5 
Pzz      = -28552.4 Pxy      = -5.93753 Pxz      = -81.9155 
Pyz      = -122.192 v_eb     = 0 v_ev     = 0 
v_et     = 0 v_ew     = -831.963 v_ep     = 0 
---------------- Step    98500 ----- CPU =      5.5319 (sec) ----------------
Step     =          98500 CPU      = 5.53189 Temp     =   4.8158521e-06 
Press    = -18584.1 PotEng   = -831.956 KinEng   = 1.18897e-07 
E_vdwl   = -831.956 E_coul   = 0 E_pair   = -831.956 
E_bond   = 0 E_angle  = 0 E_dihed  = 0 
Lx       = 10.8568 Ly       = 16.2878 Lz       = 22.1526 
Volume   = 3917.3 Pxx      = -13474.3 Pyy      = -13588.5 
Pzz      = -28689.4 Pxy      = -9.83441 Pxz      = -83.0936 
Pyz      = -125.107 v_eb     = 0 v_ev     = 0 
v_et     = 0 v_ew     = -831.956 v_ep     = 0 
---------------- Step    99000 ----- CPU =      5.6231 (sec) ----------------
Step     =          99000 CPU      = 5.62315 Temp     =   4.9465915e-06 
Press    = -18667.1 PotEng   = -831.95 KinEng   = 1.22125e-07 
E_vdwl   = -831.95 E_coul   = 0 E_pair   = -831.95 
E_bond   = 0 E_angle  = 0 E_dihed  = 0 
Lx       = 10.8567 Ly       = 16.2877 Lz       = 22.1548 
Volume   = 3917.64 Pxx      = -13529.4 Pyy      = -13645.5 
Pzz      = -28826.5 Pxy      = -6.69327 Pxz      = -84.6451 
Pyz      = -126.36 v_eb     = 0 v_ev     = 0 
v_et     = 0 v_ew     = -831.95 v_ep     = 0 
---------------- Step    99500 ----- CPU =      5.7139 (sec) ----------------
Step     =          99500 CPU      = 5.71393 Temp     =     5.13581e-06 
Press    = -18750.1 PotEng   = -831.943 KinEng   = 1.26796e-07 
E_vdwl   = -831.943 E_coul   = 0 E_pair   = -831.943 
E_bond   = 0 E_angle  = 0 E_dihed  = 0 
Lx       = 10.8566 Ly       = 16.2876 Lz       = 22.157 
Volume   = 3917.98 Pxx      = -13584.5 Pyy      = -13702.4 
Pzz      = -28963.5 Pxy      = -9.25237 Pxz      = -85.9405 
Pyz      = -128.649 v_eb     = 0 v_ev     = 0 
v_et     = 0 v_ew     = -831.943 v_ep     = 0 
---------------- Step   100000 ----- CPU =      5.8055 (sec) ----------------
Step     =         100000 CPU      = 5.80551 Temp     =   5.0062035e-06 
Press    = -18833.1 PotEng   = -831.937 KinEng   = 1.23597e-07 
E_vdwl   = -831.937 E_coul   = 0 E_pair   = -831.937 
E_bond   = 0 E_angle  = 0 E_dihed  = 0 
Lx       = 10.8565 Ly       = 16.2875 Lz       = 22.1592 
Volume   = 3918.31 Pxx      = -13639.5 Pyy      = -13759.3 
Pzz      = -29100.5 Pxy      = -8.04097 Pxz      = -87.2335 
Pyz      = -131.16 v_eb     = 0 v_ev     = 0 
v_et     = 0 v_ew     = -831.937 v_ep     = 0 
---------------- Step   100500 ----- CPU =      5.8962 (sec) ----------------
Step     =         100500 CPU      = 5.89616 Temp     =   4.9860337e-06 
Press    = -18916 PotEng   = -831.93 KinEng   = 1.23099e-07 
E_vdwl   = -831.93 E_coul   = 0 E_pair   = -831.93 
E_bond   = 0 E_angle  = 0 E_dihed  = 0 
Lx       = 10.8564 Ly       = 16.2874 Lz       = 22.1614 
Volume   = 3918.65 Pxx      = -13694.5 Pyy      = -13816.2 
Pzz      = -29237.4 Pxy      = -8.32957 Pxz      = -88.7773 
Pyz      = -132.314 v_eb     = 0 v_ev     = 0 
v_et     = 0 v_ew     = -831.93 v_ep     = 0 
---------------- Step   101000 ----- CPU =      5.9874 (sec) ----------------
Step     =         101000 CPU      = 5.98743 Temp     =   5.3728796e-06 
Press    = -18999 PotEng   = -831.923 KinEng   = 1.32649e-07 
E_vdwl   = -831.923 E_coul   = 0 E_pair   = -831.923 
E_bond   = 0 E_angle  = 0 E_dihed  = 0 
Lx       = 10.8563 Ly       = 16.2873 Lz       = 22.1636 
Volume   = 3918.98 Pxx      = -13749.5 Pyy      = -13873 
Pzz      = -29374.3 Pxy      = -9.47529 Pxz      = -89.969 
Pyz      = -135.172 v_eb     = 0 v_ev     = 0 
v_et     = 0 v_ew     = -831.923 v_ep     = 0 
---------------- Step   101500 ----- CPU =      6.0794 (sec) ----------------
Step     =         101500 CPU      = 6.0794 Temp     =   4.6571509e-06 
Press    = -19081.9 PotEng   = -831.917 KinEng   = 1.14979e-07 
E_vdwl   = -831.917 E_coul   = 0 E_pair   = -831.917 
E_bond   = 0 E_angle  = 0 E_dihed  = 0 
Lx       = 10.8563 Ly       = 16.2872 Lz       = 22.1658 
Volume   = 3919.32 Pxx      = -13804.5 Pyy      = -13929.9 
Pzz      = -29511.3 Pxy      = -7.54788 Pxz      = -91.4159 
Pyz      = -136.954 v_eb     = 0 v_ev     = 0 
v_et     = 0 v_ew     = -831.917 v_ep     = 0 
---------------- Step   102000 ----- CPU =      6.1700 (sec) ----------------
Step     =         102000 CPU      = 6.17001 Temp     =   5.9093522e-06 
Press    = -19164.7 PotEng   = -831.91 KinEng   = 1.45894e-07 
E_vdwl   = -831.91 E_coul   = 0 E_pair   = -831.91 
E_bond   = 0 E_angle  = 0 E_dihed  = 0 
Lx       = 10.8562 Ly       = 16.2872 Lz       = 22.168 
Volume   = 3919.66 Pxx      = -13859.5 Pyy      = -13986.7 
Pzz      = -29648.1 Pxy      = -10.587 Pxz      = -92.8395 
Pyz      = -138.575 v_eb     = 0 v_ev     = 0 
v_et     = 0 v_ew     = -831.91 v_ep     = 0 
---------------- Step   102500 ----- CPU =      6.2608 (sec) ----------------
Step     =         102500 CPU      = 6.26082 Temp     =   4.7079483e-06 
Press    = -19247.6 PotEng   = -831.903 KinEng   = 1.16233e-07 
E_vdwl   = -831.903 E_coul   = 0 E_pair   = -831.903 
E_bond   = 0 E_angle  = 0 E_dihed  = 0 
Lx       = 10.8561 Ly       = 16.2871 Lz       = 22.1701 
Volume   = 3919.99 Pxx      = -13914.4 Pyy      = -14043.4 
Pzz      = -29785 Pxy      = -7.21409 Pxz      = -94.0514 
Pyz      = -141.511 v_eb     = 0 v_ev     = 0 
v_et     = 0 v_ew     = -831.903 v_ep     = 0 
---------------- Step   103000 ----- CPU =      6.3519 (sec) ----------------
Step     =         103000 CPU      = 6.35189 Temp     =   5.1450591e-06 
Press    = -19330.4 PotEng   = -831.897 KinEng   = 1.27025e-07 
E_vdwl   = -831.897 E_coul   = 0 E_pair   = -831.897 
E_bond   = 0 E_angle  = 0 E_dihed  = 0 
Lx       = 10.856 Ly       = 16.287 Lz       = 22.1723 
Volume   = 3920.33 Pxx      = -13969.3 Pyy      = -14100.2 
Pzz      = -29921.8 Pxy      = -11.1829 Pxz      = -95.5827 
Pyz      = -142.68 v_eb     = 0 v_ev     = 0 
v_et     = 0 v_ew     = -831.897 v_ep     = 0 
---------------- Step   103500 ----- CPU =      6.4427 (sec) ----------------
Step     =         103500 CPU      = 6.44267 Temp     =   4.7842867e-06 
Press    = -19413.2 PotEng   = -831.89 KinEng   = 1.18118e-07 
E_vdwl   = -831.89 E_coul   = 0 E_pair   = -831.89 
E_bond   = 0 E_angle  = 0 E_dihed  = 0 
Lx       = 10.8559 Ly       = 16.2869 Lz       = 22.1745 
Volume   = 3920.67 Pxx      = -14024.1 Pyy      = -14156.9 
Pzz      = -30058.6 Pxy      = -7.4118 Pxz      = -96.8693 
Pyz      = -145.138 v_eb     = 0 v_ev     = 0 
v_et     = 0 v_ew     = -831.89 v_ep     = 0 
---------------- Step   104000 ----- CPU =      6.5341 (sec) ----------------
Step     =         104000 CPU      = 6.53415 Temp     =   5.0515642e-06 
Press    = -19496 PotEng   = -831.883 KinEng   = 1.24716e-07 
E_vdwl   = -831.883 E_coul   = 0 E_pair   = -831.883 
E_bond   = 0 E_angle  = 0 E_dihed  = 0 
Lx       = 10.8558 Ly       = 16.2868 Lz       = 22.1767 
Volume   = 3921 Pxx      = -14079 Pyy      = -14213.6 
Pzz      = -30195.4 Pxy      = -11.2747 Pxz      = -98.1831 
Pyz      = -147.445 v_eb     = 0 v_ev     = 0 
v_et     = 0 v_ew     = -831.883 v_ep     = 0 
---------------- Step   104500 ----- CPU =      6.6251 (sec) ----------------
Step     =         104500 CPU      = 6.62507 Temp     =   4.8640924e-06 
Press    = -19578.7 PotEng   = -831.876 KinEng   = 1.20088e-07 
E_vdwl   = -831.876 E_coul   = 0 E_pair   = -831.876 
E_bond   = 0 E_angle  = 0 E_dihed  = 0 
Lx       = 10.8558 Ly       = 16.2867 Lz       = 22.1789 
Volume   = 3921.34 Pxx      = -14133.8 Pyy      = -14270.2 
Pzz      = -30332.2 Pxy      = -8.05392 Pxz      = -99.7163 
Pyz      = -148.699 v_eb     = 0 v_ev     = 0 
v_et     = 0 v_ew     = -831.876 v_ep     = 0 
---------------- Step   105000 ----- CPU =      6.7158 (sec) ----------------
Step     =         105000 CPU      = 6.71584 Temp     =   4.6350564e-06 
Press    = -19661.4 PotEng   = -831.869 KinEng   = 1.14433e-07 
E_vdwl   = -831.869 E_coul   = 0 E_pair   = -831.869 
E_bond   = 0 E_angle  = 0 E_dihed  = 0 
Lx       = 10.8557 Ly       = 16.2867 Lz       = 22.1811 
Volume   = 3921.67 Pxx      = -14188.5 Pyy      = -14326.8 
Pzz      = -30468.9 Pxy      = -11.0029 Pxz      = -100.877 
Pyz      = -151.669 v_eb     = 0 v_ev     = 0 
v_et     = 0 v_ew     = -831.869 v_ep     = 0 
---------------- Step   105500 ----- CPU =      6.8063 (sec) ----------------
Step     =         105500 CPU      = 6.80628 Temp     =   4.3511647e-06 
Press    = -19744.1 PotEng   = -831.862 KinEng   = 1.07425e-07 
E_vdwl   = -831.862 E_coul   = 0 E_pair   = -831.862 
E_bond   = 0 E_angle  = 0 E_dihed  = 0 
Lx       = 10.8556 Ly       = 16.2866 Lz       = 22.1833 
Volume   = 3922.01 Pxx      = -14243.3 Pyy      = -14383.5 
Pzz      = -30605.6 Pxy      = -8.96831 Pxz      = -102.394 
Pyz      = -153.114 v_eb     = 0 v_ev     = 0 
v_et     = 0 v_ew     = -831.862 v_ep     = 0 
---------------- Step   106000 ----- CPU =      6.8967 (sec) ----------------
Step     =         106000 CPU      = 6.89672 Temp     =   5.8647512e-06 
Press    = -19826.8 PotEng   = -831.855 KinEng   = 1.44793e-07 
E_vdwl   = -831.855 E_coul   = 0 E_pair   = -831.855 
E_bond   = 0 E_angle  = 0 E_dihed  = 0 
Lx       = 10.8555 Ly       = 16.2865 Lz       = 22.1855 
Volume   = 3922.35 Pxx      = -14298 Pyy      = -14440 
Pzz      = -30742.3 Pxy      = -10.5519 Pxz      = -103.73 
Pyz      = -155.148 v_eb     = 0 v_ev     = 0 
v_et     = 0 v_ew     = -831.855 v_ep     = 0 
---------------- Step   106500 ----- CPU =      6.9872 (sec) ----------------
Step     =         106500 CPU      = 6.9872 Temp     =     5.90917e-06 
Press    = -19909.4 PotEng   = -831.848 KinEng   = 1.4589e-07 
E_vdwl   = -831.848 E_coul   = 0 E_pair   = -831.848 
E_bond   = 0 E_angle  = 0 E_dihed  = 0 
Lx       = 10.8554 Ly       = 16.2864 Lz       = 22.1876 
Volume   = 3922.68 Pxx      = -14352.7 Pyy      = -14496.6 
Pzz      = -30878.9 Pxy      = -9.97423 Pxz      = -104.995 
Pyz      = -157.811 v_eb     = 0 v_ev     = 0 
v_et     = 0 v_ew     = -831.848 v_ep     = 0 
---------------- Step   107000 ----- CPU =      7.0784 (sec) ----------------
Step     =         107000 CPU      = 7.07837 Temp     =   4.9701527e-06 
Press    = -19992 PotEng   = -831.841 KinEng   = 1.22707e-07 
E_vdwl   = -831.841 E_coul   = 0 E_pair   = -831.841 
E_bond   = 0 E_angle  = 0 E_dihed  = 0 
Lx       = 10.8553 Ly       = 16.2863 Lz       = 22.1898 
Volume   = 3923.02 Pxx      = -14407.4 Pyy      = -14553.1 
Pzz      = -31015.5 Pxy      = -10.0862 Pxz      = -106.544 
Pyz      = -158.916 v_eb     = 0 v_ev     = 0 
v_et     = 0 v_ew     = -831.841 v_ep     = 0 
---------------- Step   107500 ----- CPU =      7.1695 (sec) ----------------
Step     =         107500 CPU      = 7.16947 Temp     =   5.6632053e-06 
Press    = -20074.6 PotEng   = -831.834 KinEng   = 1.39817e-07 
E_vdwl   = -831.834 E_coul   = 0 E_pair   = -831.834 
E_bond   = 0 E_angle  = 0 E_dihed  = 0 
Lx       = 10.8552 Ly       = 16.2862 Lz       = 22.192 
Volume   = 3923.35 Pxx      = -14462 Pyy      = -14609.6 
Pzz      = -31152.1 Pxy      = -10.9321 Pxz      = -107.724 
Pyz      = -161.799 v_eb     = 0 v_ev     = 0 
v_et     = 0 v_ew     = -831.834 v_ep     = 0 
---------------- Step   108000 ----- CPU =      7.2604 (sec) ----------------
Step     =         108000 CPU      = 7.26045 Temp     =   6.0125179e-06 
Press    = -20157.1 PotEng   = -831.827 KinEng   = 1.48441e-07 
E_vdwl   = -831.827 E_coul   = 0 E_pair   = -831.827 
E_bond   = 0 E_angle  = 0 E_dihed  = 0 
Lx       = 10.8552 Ly       = 16.2862 Lz       = 22.1942 
Volume   = 3923.69 Pxx      = -14516.7 Pyy      = -14666 
Pzz      = -31288.7 Pxy      = -9.71576 Pxz      = -109.197 
Pyz      = -163.477 v_eb     = 0 v_ev     = 0 
v_et     = 0 v_ew     = -831.827 v_ep     = 0 
---------------- Step   108500 ----- CPU =      7.3510 (sec) ----------------
Step     =         108500 CPU      = 7.35103 Temp     =    4.925598e-06 
Press    = -20239.7 PotEng   = -831.82 KinEng   = 1.21607e-07 
E_vdwl   = -831.82 E_coul   = 0 E_pair   = -831.82 
E_bond   = 0 E_angle  = 0 E_dihed  = 0 
Lx       = 10.8551 Ly       = 16.2861 Lz       = 22.1964 
Volume   = 3924.02 Pxx      = -14571.2 Pyy      = -14722.5 
Pzz      = -31425.3 Pxy      = -11.7625 Pxz      = -110.575 
Pyz      = -165.258 v_eb     = 0 v_ev     = 0 
v_et     = 0 v_ew     = -831.82 v_ep     = 0 
---------------- Step   109000 ----- CPU =      7.4419 (sec) ----------------
Step     =         109000 CPU      = 7.44187 Temp     =   5.1735298e-06 
Press    = -20322.2 PotEng   = -831.813 KinEng   = 1.27728e-07 
E_vdwl   = -831.813 E_coul   = 0 E_pair   = -831.813 
E_bond   = 0 E_angle  = 0 E_dihed  = 0 
Lx       = 10.855 Ly       = 16.286 Lz       = 22.1986 
Volume   = 3924.36 Pxx      = -14625.8 Pyy      = -14778.9 
Pzz      = -31561.8 Pxy      = -9.49139 Pxz      = -111.816 
Pyz      = -168.082 v_eb     = 0 v_ev     = 0 
v_et     = 0 v_ew     = -831.813 v_ep     = 0 
---------------- Step   109500 ----- CPU =      7.5326 (sec) ----------------
Step     =         109500 CPU      = 7.53259 Temp     =   4.7517926e-06 
Press    = -20404.6 PotEng   = -831.806 KinEng   = 1.17316e-07 
E_vdwl   = -831.806 E_coul   = 0 E_pair   = -831.806 
E_bond   = 0 E_angle  = 0 E_dihed  = 0 
Lx       = 10.8549 Ly       = 16.2859 Lz       = 22.2008 
Volume   = 3924.7 Pxx      = -14680.3 Pyy      = -14835.3 
Pzz      = -31698.3 Pxy      = -12.4396 Pxz      = -113.36 
Pyz      = -169.15 v_eb     = 0 v_ev     = 0 
v_et     = 0 v_ew     = -831.806 v_ep     = 0 
---------------- Step   110000 ----- CPU =      7.6233 (sec) ----------------
Step     =         110000 CPU      = 7.62327 Temp     =   5.5070153e-06 
Press    = -20487.1 PotEng   = -831.799 KinEng   = 1.35961e-07 
E_vdwl   = -831.799 E_coul   = 0 E_pair   = -831.799 
E_bond   = 0 E_angle  = 0 E_dihed  = 0 
Lx       = 10.8548 Ly       = 16.2858 Lz       = 22.203 
Volume   = 3925.03 Pxx      = -14734.9 Pyy      = -14891.6 
Pzz      = -31834.7 Pxy      = -9.41886 Pxz      = -114.566 
Pyz      = -171.972 v_eb     = 0 v_ev     = 0 
v_et     = 0 v_ew     = -831.799 v_ep     = 0 
---------------- Step   110500 ----- CPU =      7.7139 (sec) ----------------
Step     =         110500 CPU      = 7.71388 Temp     =   5.6176379e-06 
Press    = -20569.5 PotEng   = -831.791 KinEng   = 1.38692e-07 
E_vdwl   = -831.791 E_coul   = 0 E_pair   = -831.791 
E_bond   = 0 E_angle  = 0 E_dihed  = 0 
Lx       = 10.8547 Ly       = 16.2857 Lz       = 22.2051 
Volume   = 3925.37 Pxx      = -14789.3 Pyy      = -14947.9 
Pzz      = -31971.2 Pxy      = -12.9728 Pxz      = -116 
Pyz      = -173.737 v_eb     = 0 v_ev     = 0 
v_et     = 0 v_ew     = -831.791 v_ep     = 0 
---------------- Step   111000 ----- CPU =      7.8054 (sec) ----------------
Step     =         111000 CPU      = 7.80543 Temp     =   5.3845351e-06 
Press    = -20651.9 PotEng   = -831.784 KinEng   = 1.32937e-07 
E_vdwl   = -831.784 E_coul   = 0 E_pair   = -831.784 
E_bond   = 0 E_angle  = 0 E_dihed  = 0 
Lx       = 10.8547 Ly       = 16.2856 Lz       = 22.2073 
Volume   = 3925.7 Pxx      = -14843.8 Pyy      = -15004.2 
Pzz      = -32107.6 Pxy      = -9.47793 Pxz      = -117.416 
Pyz      = -175.457 v_eb     = 0 v_ev     = 0 
v_et     = 0 v_ew     = -831.784 v_ep     = 0 
---------------- Step   111500 ----- CPU =      7.8963 (sec) ----------------
Step     =         111500 CPU      = 7.89628 Temp     =   5.3553445e-06 
Press    = -20734.2 PotEng   = -831.777 KinEng   = 1.32216e-07 
E_vdwl   = -831.777 E_coul   = 0 E_pair   = -831.777 
E_bond   = 0 E_angle  = 0 E_dihed  = 0 
Lx       = 10.8546 Ly       = 16.2856 Lz       = 22.2095 
Volume   = 3926.04 Pxx      = -14898.2 Pyy      = -15060.5 
Pzz      = -32244 Pxy      = -13.3895 Pxz      = -118.62 
Pyz      = -178.293 v_eb     = 0 v_ev     = 0 
v_et     = 0 v_ew     = -831.777 v_ep     = 0 
---------------- Step   112000 ----- CPU =      7.9883 (sec) ----------------
Step     =         112000 CPU      = 7.98828 Temp     =   5.0120881e-06 
Press    = -20816.6 PotEng   = -831.769 KinEng   = 1.23742e-07 
E_vdwl   = -831.769 E_coul   = 0 E_pair   = -831.769 
E_bond   = 0 E_angle  = 0 E_dihed  = 0 
Lx       = 10.8545 Ly       = 16.2855 Lz       = 22.2117 
Volume   = 3926.38 Pxx      = -14952.6 Pyy      = -15116.7 
Pzz      = -32380.3 Pxy      = -9.63658 Pxz      = -120.2 
Pyz      = -179.372 v_eb     = 0 v_ev     = 0 
v_et     = 0 v_ew     = -831.769 v_ep     = 0 
---------------- Step   112500 ----- CPU =      8.0802 (sec) ----------------
Step     =         112500 CPU      = 8.08019 Temp     =   5.2255003e-06 
Press    = -20898.9 PotEng   = -831.762 KinEng   = 1.29011e-07 
E_vdwl   = -831.762 E_coul   = 0 E_pair   = -831.762 
E_bond   = 0 E_angle  = 0 E_dihed  = 0 
Lx       = 10.8544 Ly       = 16.2854 Lz       = 22.2139 
Volume   = 3926.71 Pxx      = -15007 Pyy      = -15172.9 
Pzz      = -32516.7 Pxy      = -13.7242 Pxz      = -121.361 
Pyz      = -182.193 v_eb     = 0 v_ev     = 0 
v_et     = 0 v_ew     = -831.762 v_ep     = 0 
---------------- Step   113000 ----- CPU =      8.1710 (sec) ----------------
Step     =         113000 CPU      = 8.17104 Temp     =   5.1297903e-06 
Press    = -20981.2 PotEng   = -831.755 KinEng   = 1.26648e-07 
E_vdwl   = -831.755 E_coul   = 0 E_pair   = -831.755 
E_bond   = 0 E_angle  = 0 E_dihed  = 0 
Lx       = 10.8543 Ly       = 16.2853 Lz       = 22.2161 
Volume   = 3927.05 Pxx      = -15061.4 Pyy      = -15229.1 
Pzz      = -32653 Pxy      = -9.85975 Pxz      = -122.85 
Pyz      = -183.919 v_eb     = 0 v_ev     = 0 
v_et     = 0 v_ew     = -831.755 v_ep     = 0 
---------------- Step   113500 ----- CPU =      8.2620 (sec) ----------------
Step     =         113500 CPU      = 8.262 Temp     =   4.8459154e-06 
Press    = -21063.4 PotEng   = -831.747 KinEng   = 1.19639e-07 
E_vdwl   = -831.747 E_coul   = 0 E_pair   = -831.747 
E_bond   = 0 E_angle  = 0 E_dihed  = 0 
Lx       = 10.8542 Ly       = 16.2852 Lz       = 22.2183 
Volume   = 3927.38 Pxx      = -15115.7 Pyy      = -15285.3 
Pzz      = -32789.3 Pxy      = -14.0109 Pxz      = -124.199 
Pyz      = -185.701 v_eb     = 0 v_ev     = 0 
v_et     = 0 v_ew     = -831.747 v_ep     = 0 
---------------- Step   114000 ----- CPU =      8.3525 (sec) ----------------
Step     =         114000 CPU      = 8.35248 Temp     =   5.9707976e-06 
Press    = -21145.6 PotEng   = -831.74 KinEng   = 1.47411e-07 
E_vdwl   = -831.74 E_coul   = 0 E_pair   = -831.74 
E_bond   = 0 E_angle  = 0 E_dihed  = 0 
Lx       = 10.8541 Ly       = 16.2851 Lz       = 22.2205 
Volume   = 3927.72 Pxx      = -15170 Pyy      = -15341.4 
Pzz      = -32925.5 Pxy      = -10.1158 Pxz      = -125.467 
Pyz      = -188.49 v_eb     = 0 v_ev     = 0 
v_et     = 0 v_ew     = -831.74 v_ep     = 0 
---------------- Step   114500 ----- CPU =      8.4431 (sec) ----------------
Step     =         114500 CPU      = 8.44314 Temp     =   5.4519189e-06 
Press    = -21227.8 PotEng   = -831.732 KinEng   = 1.34601e-07 
E_vdwl   = -831.732 E_coul   = 0 E_pair   = -831.732 
E_bond   = 0 E_angle  = 0 E_dihed  = 0 
Lx       = 10.8541 Ly       = 16.2851 Lz       = 22.2226 
Volume   = 3928.06 Pxx      = -15224.2 Pyy      = -15397.5 
Pzz      = -33061.8 Pxy      = -14.2779 Pxz      = -126.996 
Pyz      = -189.539 v_eb     = 0 v_ev     = 0 
v_et     = 0 v_ew     = -831.732 v_ep     = 0 
---------------- Step   115000 ----- CPU =      8.5341 (sec) ----------------
Step     =         115000 CPU      = 8.53408 Temp     =   4.8312184e-06 
Press    = -21310 PotEng   = -831.725 KinEng   = 1.19276e-07 
E_vdwl   = -831.725 E_coul   = 0 E_pair   = -831.725 
E_bond   = 0 E_angle  = 0 E_dihed  = 0 
Lx       = 10.854 Ly       = 16.285 Lz       = 22.2248 
Volume   = 3928.39 Pxx      = -15278.5 Pyy      = -15453.6 
Pzz      = -33198 Pxy      = -10.3811 Pxz      = -128.181 
Pyz      = -192.499 v_eb     = 0 v_ev     = 0 
v_et     = 0 v_ew     = -831.725 v_ep     = 0 
---------------- Step   115500 ----- CPU =      8.6255 (sec) ----------------
Step     =         115500 CPU      = 8.62547 Temp     =   4.6094366e-06 
Press    = -21392.2 PotEng   = -831.717 KinEng   = 1.13801e-07 
E_vdwl   = -831.717 E_coul   = 0 E_pair   = -831.717 
E_bond   = 0 E_angle  = 0 E_dihed  = 0 
Lx       = 10.8539 Ly       = 16.2849 Lz       = 22.227 
Volume   = 3928.73 Pxx      = -15332.7 Pyy      = -15509.6 
Pzz      = -33334.2 Pxy      = -14.5432 Pxz      = -129.671 
Pyz      = -193.975 v_eb     = 0 v_ev     = 0 
v_et     = 0 v_ew     = -831.717 v_ep     = 0 
---------------- Step   116000 ----- CPU =      8.7163 (sec) ----------------
Step     =         116000 CPU      = 8.71635 Temp     =   5.1633373e-06 
Press    = -21474.3 PotEng   = -831.71 KinEng   = 1.27476e-07 
E_vdwl   = -831.71 E_coul   = 0 E_pair   = -831.71 
E_bond   = 0 E_angle  = 0 E_dihed  = 0 
Lx       = 10.8538 Ly       = 16.2848 Lz       = 22.2292 
Volume   = 3929.06 Pxx      = -15386.9 Pyy      = -15565.7 
Pzz      = -33470.3 Pxy      = -10.6429 Pxz      = -131 
Pyz      = -196.059 v_eb     = 0 v_ev     = 0 
v_et     = 0 v_ew     = -831.71 v_ep     = 0 
---------------- Step   116500 ----- CPU =      8.8069 (sec) ----------------
Step     =         116500 CPU      = 8.80694 Temp     =   5.1697273e-06 
Press    = -21556.4 PotEng   = -831.702 KinEng   = 1.27634e-07 
E_vdwl   = -831.702 E_coul   = 0 E_pair   = -831.702 
E_bond   = 0 E_angle  = 0 E_dihed  = 0 
Lx       = 10.8537 Ly       = 16.2847 Lz       = 22.2314 
Volume   = 3929.4 Pxx      = -15441.1 Pyy      = -15621.6 
Pzz      = -33606.4 Pxy      = -14.8146 Pxz      = -132.286 
Pyz      = -198.58 v_eb     = 0 v_ev     = 0 
v_et     = 0 v_ew     = -831.702 v_ep     = 0 
---------------- Step   117000 ----- CPU =      8.8975 (sec) ----------------
Step     =         117000 CPU      = 8.89754 Temp     =   5.5548534e-06 
Press    = -21638.4 PotEng   = -831.695 KinEng   = 1.37142e-07 
E_vdwl   = -831.695 E_coul   = 0 E_pair   = -831.695 
E_bond   = 0 E_angle  = 0 E_dihed  = 0 
Lx       = 10.8536 Ly       = 16.2846 Lz       = 22.2336 
Volume   = 3929.73 Pxx      = -15495.2 Pyy      = -15677.6 
Pzz      = -33742.5 Pxy      = -10.8987 Pxz      = -133.817 
Pyz      = -199.761 v_eb     = 0 v_ev     = 0 
v_et     = 0 v_ew     = -831.695 v_ep     = 0 
---------------- Step   117500 ----- CPU =      8.9881 (sec) ----------------
Step     =         117500 CPU      = 8.98807 Temp     =    5.429951e-06 
Press    = -21720.5 PotEng   = -831.687 KinEng   = 1.34058e-07 
E_vdwl   = -831.687 E_coul   = 0 E_pair   = -831.687 
E_bond   = 0 E_angle  = 0 E_dihed  = 0 
Lx       = 10.8536 Ly       = 16.2846 Lz       = 22.2358 
Volume   = 3930.07 Pxx      = -15549.3 Pyy      = -15733.5 
Pzz      = -33878.6 Pxy      = -15.0897 Pxz      = -134.958 
Pyz      = -202.786 v_eb     = 0 v_ev     = 0 
v_et     = 0 v_ew     = -831.687 v_ep     = 0 
---------------- Step   118000 ----- CPU =      9.0793 (sec) ----------------
Step     =         118000 CPU      = 9.07926 Temp     =     4.79454e-06 
Press    = -21802.5 PotEng   = -831.679 KinEng   = 1.18371e-07 
E_vdwl   = -831.679 E_coul   = 0 E_pair   = -831.679 
E_bond   = 0 E_angle  = 0 E_dihed  = 0 
Lx       = 10.8535 Ly       = 16.2845 Lz       = 22.238 
Volume   = 3930.41 Pxx      = -15603.4 Pyy      = -15789.5 
Pzz      = -34014.7 Pxy      = -11.155 Pxz      = -136.539 
Pyz      = -203.988 v_eb     = 0 v_ev     = 0 
v_et     = 0 v_ew     = -831.679 v_ep     = 0 
---------------- Step   118500 ----- CPU =      9.1702 (sec) ----------------
Step     =         118500 CPU      = 9.17018 Temp     =   4.7349347e-06 
Press    = -21884.5 PotEng   = -831.671 KinEng   = 1.16899e-07 
E_vdwl   = -831.671 E_coul   = 0 E_pair   = -831.671 
E_bond   = 0 E_angle  = 0 E_dihed  = 0 
Lx       = 10.8534 Ly       = 16.2844 Lz       = 22.2401 
Volume   = 3930.74 Pxx      = -15657.4 Pyy      = -15845.3 
Pzz      = -34150.7 Pxy      = -15.3579 Pxz      = -137.734 
Pyz      = -206.488 v_eb     = 0 v_ev     = 0 
v_et     = 0 v_ew     = -831.671 v_ep     = 0 
---------------- Step   119000 ----- CPU =      9.2608 (sec) ----------------
Step     =         119000 CPU      = 9.26085 Temp     =   5.0667791e-06 
Press    = -21966.4 PotEng   = -831.664 KinEng   = 1.25092e-07 
E_vdwl   = -831.664 E_coul   = 0 E_pair   = -831.664 
E_bond   = 0 E_angle  = 0 E_dihed  = 0 
Lx       = 10.8533 Ly       = 16.2843 Lz       = 22.2423 
Volume   = 3931.08 Pxx      = -15711.5 Pyy      = -15901.2 
Pzz      = -34286.7 Pxy      = -11.4269 Pxz      = -139.172 
Pyz      = -208.561 v_eb     = 0 v_ev     = 0 
v_et     = 0 v_ew     = -831.664 v_ep     = 0 
---------------- Step   119500 ----- CPU =      9.3518 (sec) ----------------
Step     =         119500 CPU      = 9.35179 Temp     =   5.8878469e-06 
Press    = -22048.4 PotEng   = -831.656 KinEng   = 1.45363e-07 
E_vdwl   = -831.656 E_coul   = 0 E_pair   = -831.656 
E_bond   = 0 E_angle  = 0 E_dihed  = 0 
Lx       = 10.8532 Ly       = 16.2842 Lz       = 22.2445 
Volume   = 3931.41 Pxx      = -15765.5 Pyy      = -15957 
Pzz      = -34422.7 Pxy      = -15.5996 Pxz      = -140.558 
Pyz      = -210.077 v_eb     = 0 v_ev     = 0 
v_et     = 0 v_ew     = -831.656 v_ep     = 0 
---------------- Step   120000 ----- CPU =      9.4428 (sec) ----------------
Step     =         120000 CPU      = 9.44277 Temp     =    5.940467e-06 
Press    = -22130.3 PotEng   = -831.648 KinEng   = 1.46662e-07 
E_vdwl   = -831.648 E_coul   = 0 E_pair   = -831.648 
E_bond   = 0 E_angle  = 0 E_dihed  = 0 
Lx       = 10.8531 Ly       = 16.2841 Lz       = 22.2467 
Volume   = 3931.75 Pxx      = -15819.4 Pyy      = -16012.8 
Pzz      = -34558.6 Pxy      = -11.7384 Pxz      = -141.804 
Pyz      = -212.995 v_eb     = 0 v_ev     = 0 
v_et     = 0 v_ew     = -831.648 v_ep     = 0 
---------------- Step   120500 ----- CPU =      9.5339 (sec) ----------------
Step     =         120500 CPU      = 9.53391 Temp     =   4.8706361e-06 
Press    = -22212.2 PotEng   = -831.64 KinEng   = 1.2025e-07 
E_vdwl   = -831.64 E_coul   = 0 E_pair   = -831.64 
E_bond   = 0 E_angle  = 0 E_dihed  = 0 
Lx       = 10.853 Ly       = 16.2841 Lz       = 22.2489 
Volume   = 3932.08 Pxx      = -15873.4 Pyy      = -16068.6 
Pzz      = -34694.5 Pxy      = -15.7862 Pxz      = -143.337 
Pyz      = -214.005 v_eb     = 0 v_ev     = 0 
v_et     = 0 v_ew     = -831.64 v_ep     = 0 
---------------- Step   121000 ----- CPU =      9.6246 (sec) ----------------
Step     =         121000 CPU      = 9.62458 Temp     =    4.822075e-06 
Press    = -22294 PotEng   = -831.632 KinEng   = 1.19051e-07 
E_vdwl   = -831.632 E_coul   = 0 E_pair   = -831.632 
E_bond   = 0 E_angle  = 0 E_dihed  = 0 
Lx       = 10.853 Ly       = 16.284 Lz       = 22.2511 
Volume   = 3932.42 Pxx      = -15927.3 Pyy      = -16124.3 
Pzz      = -34830.4 Pxy      = -12.1225 Pxz      = -144.512 
Pyz      = -216.98 v_eb     = 0 v_ev     = 0 
v_et     = 0 v_ew     = -831.632 v_ep     = 0 
---------------- Step   121500 ----- CPU =      9.7152 (sec) ----------------
Step     =         121500 CPU      = 9.71517 Temp     =   5.2415179e-06 
Press    = -22375.8 PotEng   = -831.624 KinEng   = 1.29406e-07 
E_vdwl   = -831.624 E_coul   = 0 E_pair   = -831.624 
E_bond   = 0 E_angle  = 0 E_dihed  = 0 
Lx       = 10.8529 Ly       = 16.2839 Lz       = 22.2533 
Volume   = 3932.76 Pxx      = -15981.2 Pyy      = -16180 
Pzz      = -34966.3 Pxy      = -15.8814 Pxz      = -146.026 
Pyz      = -218.377 v_eb     = 0 v_ev     = 0 
v_et     = 0 v_ew     = -831.624 v_ep     = 0 
---------------- Step   122000 ----- CPU =      9.8063 (sec) ----------------
Step     =         122000 CPU      = 9.8063 Temp     =   4.8696495e-06 
Press    = -22457.6 PotEng   = -831.616 KinEng   = 1.20225e-07 
E_vdwl   = -831.616 E_coul   = 0 E_pair   = -831.616 
E_bond   = 0 E_angle  = 0 E_dihed  = 0 
Lx       = 10.8528 Ly       = 16.2838 Lz       = 22.2555 
Volume   = 3933.09 Pxx      = -16035.1 Pyy      = -16235.7 
Pzz      = -35102.1 Pxy      = -12.6171 Pxz      = -147.301 
Pyz      = -220.621 v_eb     = 0 v_ev     = 0 
v_et     = 0 v_ew     = -831.616 v_ep     = 0 
---------------- Step   122500 ----- CPU =      9.8972 (sec) ----------------
Step     =         122500 CPU      = 9.89719 Temp     =   5.5041356e-06 
Press    = -22539.4 PotEng   = -831.608 KinEng   = 1.3589e-07 
E_vdwl   = -831.608 E_coul   = 0 E_pair   = -831.608 
E_bond   = 0 E_angle  = 0 E_dihed  = 0 
Lx       = 10.8527 Ly       = 16.2837 Lz       = 22.2577 
Volume   = 3933.43 Pxx      = -16088.9 Pyy      = -16291.4 
Pzz      = -35238 Pxy      = -15.8472 Pxz      = -148.657 
Pyz      = -222.919 v_eb     = 0 v_ev     = 0 
v_et     = 0 v_ew     = -831.608 v_ep     = 0 
---------------- Step   123000 ----- CPU =      9.9884 (sec) ----------------
Step     =         123000 CPU      = 9.98842 Temp     =   5.4045051e-06 
Press    = -22621.2 PotEng   = -831.6 KinEng   = 1.3343e-07 
E_vdwl   = -831.6 E_coul   = 0 E_pair   = -831.6 
E_bond   = 0 E_angle  = 0 E_dihed  = 0 
Lx       = 10.8526 Ly       = 16.2836 Lz       = 22.2598 
Volume   = 3933.76 Pxx      = -16142.7 Pyy      = -16347 
Pzz      = -35373.7 Pxy      = -13.258 Pxz      = -150.111 
Pyz      = -224.285 v_eb     = 0 v_ev     = 0 
v_et     = 0 v_ew     = -831.6 v_ep     = 0 
---------------- Step   123500 ----- CPU =     10.0812 (sec) ----------------
Step     =         123500 CPU      = 10.0812 Temp     =    6.055855e-06 
Press    = -22702.9 PotEng   = -831.592 KinEng   = 1.49511e-07 
E_vdwl   = -831.592 E_coul   = 0 E_pair   = -831.592 
E_bond   = 0 E_angle  = 0 E_dihed  = 0 
Lx       = 10.8525 Ly       = 16.2835 Lz       = 22.262 
Volume   = 3934.1 Pxx      = -16196.5 Pyy      = -16402.6 
Pzz      = -35509.5 Pxy      = -15.6541 Pxz      = -151.302 
Pyz      = -227.259 v_eb     = 0 v_ev     = 0 
v_et     = 0 v_ew     = -831.592 v_ep     = 0 
---------------- Step   124000 ----- CPU =     10.1722 (sec) ----------------
Step     =         124000 CPU      = 10.1722 Temp     =   5.7403597e-06 
Press    = -22784.6 PotEng   = -831.584 KinEng   = 1.41722e-07 
E_vdwl   = -831.584 E_coul   = 0 E_pair   = -831.584 
E_bond   = 0 E_angle  = 0 E_dihed  = 0 
Lx       = 10.8525 Ly       = 16.2835 Lz       = 22.2642 
Volume   = 3934.43 Pxx      = -16250.3 Pyy      = -16458.2 
Pzz      = -35645.2 Pxy      = -14.0643 Pxz      = -152.873 
Pyz      = -228.274 v_eb     = 0 v_ev     = 0 
v_et     = 0 v_ew     = -831.584 v_ep     = 0 
---------------- Step   124500 ----- CPU =     10.2628 (sec) ----------------
Step     =         124500 CPU      = 10.2628 Temp     =   5.9799941e-06 
Press    = -22866.2 PotEng   = -831.576 KinEng   = 1.47638e-07 
E_vdwl   = -831.576 E_coul   = 0 E_pair   = -831.576 
E_bond   = 0 E_angle  = 0 E_dihed  = 0 
Lx       = 10.8524 Ly       = 16.2834 Lz       = 22.2664 
Volume   = 3934.77 Pxx      = -16304 Pyy      = -16513.8 
Pzz      = -35781 Pxy      = -15.2974 Pxz      = -154.015 
Pyz      = -231.22 v_eb     = 0 v_ev     = 0 
v_et     = 0 v_ew     = -831.576 v_ep     = 0 
---------------- Step   125000 ----- CPU =     10.3544 (sec) ----------------
Step     =         125000 CPU      = 10.3544 Temp     =   6.4320188e-06 
Press    = -22947.9 PotEng   = -831.568 KinEng   = 1.58798e-07 
E_vdwl   = -831.568 E_coul   = 0 E_pair   = -831.568 
E_bond   = 0 E_angle  = 0 E_dihed  = 0 
Lx       = 10.8523 Ly       = 16.2833 Lz       = 22.2686 
Volume   = 3935.1 Pxx      = -16357.7 Pyy      = -16569.3 
Pzz      = -35916.6 Pxy      = -15.0213 Pxz      = -155.56 
Pyz      = -232.618 v_eb     = 0 v_ev     = 0 
v_et     = 0 v_ew     = -831.568 v_ep     = 0 
---------------- Step   125500 ----- CPU =     10.4468 (sec) ----------------
Step     =         125500 CPU      = 10.4469 Temp     =   5.4936218e-06 
Press    = -23029.5 PotEng   = -831.56 KinEng   = 1.3563e-07 
E_vdwl   = -831.56 E_coul   = 0 E_pair   = -831.56 
E_bond   = 0 E_angle  = 0 E_dihed  = 0 
Lx       = 10.8522 Ly       = 16.2832 Lz       = 22.2708 
Volume   = 3935.44 Pxx      = -16411.4 Pyy      = -16624.8 
Pzz      = -36052.3 Pxy      = -14.816 Pxz      = -156.795 
Pyz      = -234.907 v_eb     = 0 v_ev     = 0 
v_et     = 0 v_ew     = -831.56 v_ep     = 0 
---------------- Step   126000 ----- CPU =     10.5382 (sec) ----------------
Step     =         126000 CPU      = 10.5382 Temp     =   6.2157807e-06 
Press    = -23111.1 PotEng   = -831.552 KinEng   = 1.53459e-07 
E_vdwl   = -831.552 E_coul   = 0 E_pair   = -831.552 
E_bond   = 0 E_angle  = 0 E_dihed  = 0 
Lx       = 10.8521 Ly       = 16.2831 Lz       = 22.273 
Volume   = 3935.78 Pxx      = -16465.1 Pyy      = -16680.3 
Pzz      = -36187.9 Pxy      = -16.0621 Pxz      = -158.195 
Pyz      = -237.107 v_eb     = 0 v_ev     = 0 
v_et     = 0 v_ew     = -831.552 v_ep     = 0 
---------------- Step   126500 ----- CPU =     10.6299 (sec) ----------------
Step     =         126500 CPU      = 10.6299 Temp     =    5.750107e-06 
Press    = -23192.6 PotEng   = -831.544 KinEng   = 1.41963e-07 
E_vdwl   = -831.544 E_coul   = 0 E_pair   = -831.544 
E_bond   = 0 E_angle  = 0 E_dihed  = 0 
Lx       = 10.852 Ly       = 16.283 Lz       = 22.2752 
Volume   = 3936.11 Pxx      = -16518.7 Pyy      = -16735.7 
Pzz      = -36323.5 Pxy      = -14.3078 Pxz      = -159.601 
Pyz      = -238.589 v_eb     = 0 v_ev     = 0 
v_et     = 0 v_ew     = -831.544 v_ep     = 0 
---------------- Step   127000 ----- CPU =     10.7211 (sec) ----------------
Step     =         127000 CPU      = 10.7211 Temp     =   5.2596915e-06 
Press    = -23274.2 PotEng   = -831.535 KinEng   = 1.29855e-07 
E_vdwl   = -831.535 E_coul   = 0 E_pair   = -831.535 
E_bond   = 0 E_angle  = 0 E_dihed  = 0 
Lx       = 10.8519 Ly       = 16.283 Lz       = 22.2773 
Volume   = 3936.45 Pxx      = -16572.3 Pyy      = -16791.1 
Pzz      = -36459.1 Pxy      = -17.0568 Pxz      = -160.829 
Pyz      = -241.469 v_eb     = 0 v_ev     = 0 
v_et     = 0 v_ew     = -831.535 v_ep     = 0 
---------------- Step   127500 ----- CPU =     10.8117 (sec) ----------------
Step     =         127500 CPU      = 10.8117 Temp     =    5.818781e-06 
Press    = -23355.7 PotEng   = -831.527 KinEng   = 1.43658e-07 
E_vdwl   = -831.527 E_coul   = 0 E_pair   = -831.527 
E_bond   = 0 E_angle  = 0 E_dihed  = 0 
Lx       = 10.8519 Ly       = 16.2829 Lz       = 22.2795 
Volume   = 3936.78 Pxx      = -16625.9 Pyy      = -16846.5 
Pzz      = -36594.7 Pxy      = -13.9327 Pxz      = -162.381 
Pyz      = -242.496 v_eb     = 0 v_ev     = 0 
v_et     = 0 v_ew     = -831.527 v_ep     = 0 
---------------- Step   128000 ----- CPU =     10.9028 (sec) ----------------
Step     =         128000 CPU      = 10.9028 Temp     =   5.2206412e-06 
Press    = -23437.2 PotEng   = -831.519 KinEng   = 1.28891e-07 
E_vdwl   = -831.519 E_coul   = 0 E_pair   = -831.519 
E_bond   = 0 E_angle  = 0 E_dihed  = 0 
Lx       = 10.8518 Ly       = 16.2828 Lz       = 22.2817 
Volume   = 3937.12 Pxx      = -16679.4 Pyy      = -16901.9 
Pzz      = -36730.2 Pxy      = -17.821 Pxz      = -163.508 
Pyz      = -245.545 v_eb     = 0 v_ev     = 0 
v_et     = 0 v_ew     = -831.519 v_ep     = 0 
---------------- Step   128500 ----- CPU =     10.9939 (sec) ----------------
Step     =         128500 CPU      = 10.9939 Temp     =   5.7214537e-06 
Press    = -23518.6 PotEng   = -831.51 KinEng   = 1.41255e-07 
E_vdwl   = -831.51 E_coul   = 0 E_pair   = -831.51 
E_bond   = 0 E_angle  = 0 E_dihed  = 0 
Lx       = 10.8517 Ly       = 16.2827 Lz       = 22.2839 
Volume   = 3937.45 Pxx      = -16732.9 Pyy      = -16957.2 
Pzz      = -36865.7 Pxy      = -13.8892 Pxz      = -165.105 
Pyz      = -246.697 v_eb     = 0 v_ev     = 0 
v_et     = 0 v_ew     = -831.51 v_ep     = 0 
---------------- Step   129000 ----- CPU =     11.0856 (sec) ----------------
Step     =         129000 CPU      = 11.0856 Temp     =   6.0171346e-06 
Press    = -23600 PotEng   = -831.502 KinEng   = 1.48555e-07 
E_vdwl   = -831.502 E_coul   = 0 E_pair   = -831.502 
E_bond   = 0 E_angle  = 0 E_dihed  = 0 
Lx       = 10.8516 Ly       = 16.2826 Lz       = 22.2861 
Volume   = 3937.79 Pxx      = -16786.4 Pyy      = -17012.5 
Pzz      = -37001.2 Pxy      = -18.1571 Pxz      = -166.244 
Pyz      = -249.357 v_eb     = 0 v_ev     = 0 
v_et     = 0 v_ew     = -831.502 v_ep     = 0 
---------------- Step   129500 ----- CPU =     11.1767 (sec) ----------------
Step     =         129500 CPU      = 11.1767 Temp     =   6.2972342e-06 
Press    = -23681.4 PotEng   = -831.494 KinEng   = 1.5547e-07 
E_vdwl   = -831.494 E_coul   = 0 E_pair   = -831.494 
E_bond   = 0 E_angle  = 0 E_dihed  = 0 
Lx       = 10.8515 Ly       = 16.2825 Lz       = 22.2883 
Volume   = 3938.12 Pxx      = -16839.9 Pyy      = -17067.8 
Pzz      = -37136.6 Pxy      = -14.3547 Pxz      = -167.772 
Pyz      = -251.095 v_eb     = 0 v_ev     = 0 
v_et     = 0 v_ew     = -831.494 v_ep     = 0 
---------------- Step   129924 ----- CPU =     11.2536 (sec) ----------------
Step     =         129924 CPU      = 11.2536 Temp     =   5.8171887e-06 
Press    = -23750.4 PotEng   = -831.486 KinEng   = 1.43619e-07 
E_vdwl   = -831.486 E_coul   = 0 E_pair   = -831.486 
E_bond   = 0 E_angle  = 0 E_dihed  = 0 
Lx       = 10.8515 Ly       = 16.2825 Lz       = 22.2901 
Volume   = 3938.41 Pxx      = -16885.2 Pyy      = -17114.6 
Pzz      = -37251.5 Pxy      = -16.5982 Pxz      = -168.957 
Pyz      = -252.48 v_eb     = 0 v_ev     = 0 
v_et     = 0 v_ew     = -831.486 v_ep     = 0 
Loop time of 11.2536 on 1 procs for 61710 steps with 192 atoms

Performance: 947.563 ns/day, 0.025 hours/ns, 5483.582 timesteps/s
100.0% CPU use with 1 MPI tasks x no OpenMP threads

MPI task timing breakdown:
Section |  min time  |  avg time  |  max time  |%varavg| %total
---------------------------------------------------------------
Pair    | 10.537     | 10.537     | 10.537     |   0.0 | 93.63
Neigh   | 0          | 0          | 0          |   0.0 |  0.00
Comm    | 0.25102    | 0.25102    | 0.25102    |   0.0 |  2.23
Output  | 0.0054307  | 0.0054307  | 0.0054307  |   0.0 |  0.05
Modify  | 0.36144    | 0.36144    | 0.36144    |   0.0 |  3.21
Other   |            | 0.09855    |            |       |  0.88

Nlocal:    192 ave 192 max 192 min
Histogram: 1 0 0 0 0 0 0 0 0 0
Nghost:    932 ave 932 max 932 min
Histogram: 1 0 0 0 0 0 0 0 0 0
Neighs:    0 ave 0 max 0 min
Histogram: 1 0 0 0 0 0 0 0 0 0
FullNghs:  6528 ave 6528 max 6528 min
Histogram: 1 0 0 0 0 0 0 0 0 0

Total # of neighbors = 6528
Ave neighs/atom = 34
Neighbor list builds = 0
Dangerous builds = 0

#  Releasing fix deform constraint
unfix 1

##  Setting 2fs timesteps
##timestep        dts #2.0  #(in wrapper)
#timestep        ${dts} #2.0
#
##  Running a molecular dynamics simulation for relaxation of applied strain
##  during the same amount of time
##run             nts #2000000  #(in wrapper)
#run             ${nts} #2000000

#  Releasing fix constraints
unfix 3
#unfix 4

#  Stopping dump
#undump            atom_dump

# Sample initial state
#variable nss equal ${nssample0}
#fix   shak all shake 0.001 20 1000 m 1.0
#fix   wholevol all nvt temp ${tempt} ${tempt} 100.0
#include ${locbe}/sample.mod.lammps
#unfix wholevol
#unfix shak

#variable tmp equal f_stress[1]
#variable pp11 equal ${tmp}
#variable tmp equal f_stress[2]
#variable pp22 equal ${tmp}
#variable tmp equal f_stress[3]
#variable pp33 equal ${tmp}
#variable tmp equal f_stress[4]
#variable pp12 equal ${tmp}
#variable tmp equal f_stress[5]
#variable pp13 equal ${tmp}
#variable tmp equal f_stress[6]
#variable pp23 equal ${tmp}
write_restart /home/jinzhen/projects/SCEMa/examples/test1/nanoscale_output/last.15.g0_1.dump
write_restart /home/jinzhen/projects/SCEMa/examples/test1/nanoscale_restart/lcts.15.g0_1.dump
Total wall time: 0:00:11
